# vtk DataFile Version 4.0
vtk output
ASCII
DATASET UNSTRUCTURED_GRID
POINTS 5041 float
0.0000000e+00 0.0000000e+00 0.0000000e+00 
0.0000000e+00 1.4285714e-02 0.0000000e+00 
1.4285714e-02 0.0000000e+00 0.0000000e+00 
1.4285714e-02 1.4285714e-02 0.0000000e+00 
2.8571429e-02 0.0000000e+00 0.0000000e+00 
0.0000000e+00 2.8571429e-02 0.0000000e+00 
1.4285714e-02 2.8571429e-02 0.0000000e+00 
2.8571429e-02 1.4285714e-02 0.0000000e+00 
2.8571429e-02 2.8571429e-02 0.0000000e+00 
4.2857144e-02 0.0000000e+00 0.0000000e+00 
0.0000000e+00 4.2857144e-02 0.0000000e+00 
1.4285714e-02 4.2857144e-02 0.0000000e+00 
4.2857144e-02 1.4285714e-02 0.0000000e+00 
4.2857144e-02 2.8571429e-02 0.0000000e+00 
2.8571429e-02 4.2857144e-02 0.0000000e+00 
5.7142857e-02 0.0000000e+00 0.0000000e+00 
0.0000000e+00 5.7142857e-02 0.0000000e+00 
5.7142857e-02 1.4285714e-02 0.0000000e+00 
1.4285714e-02 5.7142857e-02 0.0000000e+00 
4.2857144e-02 4.2857144e-02 0.0000000e+00 
5.7142857e-02 2.8571429e-02 0.0000000e+00 
2.8571429e-02 5.7142857e-02 0.0000000e+00 
7.1428575e-02 0.0000000e+00 0.0000000e+00 
5.7142857e-02 4.2857144e-02 0.0000000e+00 
0.0000000e+00 7.1428575e-02 0.0000000e+00 
4.2857144e-02 5.7142857e-02 0.0000000e+00 
1.4285714e-02 7.1428575e-02 0.0000000e+00 
7.1428575e-02 1.4285714e-02 0.0000000e+00 
7.1428575e-02 2.8571429e-02 0.0000000e+00 
2.8571429e-02 7.1428575e-02 0.0000000e+00 
5.7142857e-02 5.7142857e-02 0.0000000e+00 
4.2857144e-02 7.1428575e-02 0.0000000e+00 
7.1428575e-02 4.2857144e-02 0.0000000e+00 
0.0000000e+00 8.5714288e-02 0.0000000e+00 
8.5714288e-02 0.0000000e+00 0.0000000e+00 
8.5714288e-02 1.4285714e-02 0.0000000e+00 
1.4285714e-02 8.5714288e-02 0.0000000e+00 
8.5714288e-02 2.8571429e-02 0.0000000e+00 
2.8571429e-02 8.5714288e-02 0.0000000e+00 
7.1428575e-02 5.7142857e-02 0.0000000e+00 
5.7142857e-02 7.1428575e-02 0.0000000e+00 
8.5714288e-02 4.2857144e-02 0.0000000e+00 
4.2857144e-02 8.5714288e-02 0.0000000e+00 
1.0000000e-01 0.0000000e+00 0.0000000e+00 
0.0000000e+00 1.0000000e-01 0.0000000e+00 
7.1428575e-02 7.1428575e-02 0.0000000e+00 
1.4285714e-02 1.0000000e-01 0.0000000e+00 
1.0000000e-01 1.4285714e-02 0.0000000e+00 
5.7142857e-02 8.5714288e-02 0.0000000e+00 
8.5714288e-02 5.7142857e-02 0.0000000e+00 
1.0000000e-01 2.8571429e-02 0.0000000e+00 
2.8571429e-02 1.0000000e-01 0.0000000e+00 
1.0000000e-01 4.2857144e-02 0.0000000e+00 
4.2857144e-02 1.0000000e-01 0.0000000e+00 
7.1428575e-02 8.5714288e-02 0.0000000e+00 
8.5714288e-02 7.1428575e-02 0.0000000e+00 
1.1428571e-01 0.0000000e+00 0.0000000e+00 
0.0000000e+00 1.1428571e-01 0.0000000e+00 
1.1428571e-01 1.4285714e-02 0.0000000e+00 
5.7142857e-02 1.0000000e-01 0.0000000e+00 
1.0000000e-01 5.7142857e-02 0.0000000e+00 
1.4285714e-02 1.1428571e-01 0.0000000e+00 
1.1428571e-01 2.8571429e-02 0.0000000e+00 
2.8571429e-02 1.1428571e-01 0.0000000e+00 
8.5714288e-02 8.5714288e-02 0.0000000e+00 
1.1428571e-01 4.2857144e-02 0.0000000e+00 
4.2857144e-02 1.1428571e-01 0.0000000e+00 
7.1428575e-02 1.0000000e-01 0.0000000e+00 
1.0000000e-01 7.1428575e-02 0.0000000e+00 
1.1428571e-01 5.7142857e-02 0.0000000e+00 
5.7142857e-02 1.1428571e-01 0.0000000e+00 
1.2857144e-01 0.0000000e+00 0.0000000e+00 
0.0000000e+00 1.2857144e-01 0.0000000e+00 
1.2857144e-01 1.4285714e-02 0.0000000e+00 
1.4285714e-02 1.2857144e-01 0.0000000e+00 
1.2857144e-01 2.8571429e-02 0.0000000e+00 
2.8571429e-02 1.2857144e-01 0.0000000e+00 
8.5714288e-02 1.0000000e-01 0.0000000e+00 
1.0000000e-01 8.5714288e-02 0.0000000e+00 
7.1428575e-02 1.1428571e-01 0.0000000e+00 
1.1428571e-01 7.1428575e-02 0.0000000e+00 
1.2857144e-01 4.2857144e-02 0.0000000e+00 
4.2857144e-02 1.2857144e-01 0.0000000e+00 
5.7142857e-02 1.2857144e-01 0.0000000e+00 
1.2857144e-01 5.7142857e-02 0.0000000e+00 
1.0000000e-01 1.0000000e-01 0.0000000e+00 
1.1428571e-01 8.5714288e-02 0.0000000e+00 
1.4285715e-01 0.0000000e+00 0.0000000e+00 
0.0000000e+00 1.4285715e-01 0.0000000e+00 
8.5714288e-02 1.1428571e-01 0.0000000e+00 
1.4285714e-02 1.4285715e-01 0.0000000e+00 
1.4285715e-01 1.4285714e-02 0.0000000e+00 
1.4285715e-01 2.8571429e-02 0.0000000e+00 
2.8571429e-02 1.4285715e-01 0.0000000e+00 
7.1428575e-02 1.2857144e-01 0.0000000e+00 
1.2857144e-01 7.1428575e-02 0.0000000e+00 
1.4285715e-01 4.2857144e-02 0.0000000e+00 
4.2857144e-02 1.4285715e-01 0.0000000e+00 
1.1428571e-01 1.0000000e-01 0.0000000e+00 
1.0000000e-01 1.1428571e-01 0.0000000e+00 
1.4285715e-01 5.7142857e-02 0.0000000e+00 
5.7142857e-02 1.4285715e-01 0.0000000e+00 
8.5714288e-02 1.2857144e-01 0.0000000e+00 
1.2857144e-01 8.5714288e-02 0.0000000e+00 
1.5714286e-01 0.0000000e+00 0.0000000e+00 
0.0000000e+00 1.5714286e-01 0.0000000e+00 
1.5714286e-01 1.4285714e-02 0.0000000e+00 
1.4285714e-02 1.5714286e-01 0.0000000e+00 
2.8571429e-02 1.5714286e-01 0.0000000e+00 
1.5714286e-01 2.8571429e-02 0.0000000e+00 
7.1428575e-02 1.4285715e-01 0.0000000e+00 
1.4285715e-01 7.1428575e-02 0.0000000e+00 
1.1428571e-01 1.1428571e-01 0.0000000e+00 
1.0000000e-01 1.2857144e-01 0.0000000e+00 
1.2857144e-01 1.0000000e-01 0.0000000e+00 
1.5714286e-01 4.2857144e-02 0.0000000e+00 
4.2857144e-02 1.5714286e-01 0.0000000e+00 
1.4285715e-01 8.5714288e-02 0.0000000e+00 
8.5714288e-02 1.4285715e-01 0.0000000e+00 
5.7142857e-02 1.5714286e-01 0.0000000e+00 
1.5714286e-01 5.7142857e-02 0.0000000e+00 
1.7142858e-01 0.0000000e+00 0.0000000e+00 
0.0000000e+00 1.7142858e-01 0.0000000e+00 
1.1428571e-01 1.2857144e-01 0.0000000e+00 
1.7142858e-01 1.4285714e-02 0.0000000e+00 
1.2857144e-01 1.1428571e-01 0.0000000e+00 
1.4285714e-02 1.7142858e-01 0.0000000e+00 
7.1428575e-02 1.5714286e-01 0.0000000e+00 
1.5714286e-01 7.1428575e-02 0.0000000e+00 
2.8571429e-02 1.7142858e-01 0.0000000e+00 
1.7142858e-01 2.8571429e-02 0.0000000e+00 
1.4285715e-01 1.0000000e-01 0.0000000e+00 
1.0000000e-01 1.4285715e-01 0.0000000e+00 
4.2857144e-02 1.7142858e-01 0.0000000e+00 
1.7142858e-01 4.2857144e-02 0.0000000e+00 
1.5714286e-01 8.5714288e-02 0.0000000e+00 
8.5714288e-02 1.5714286e-01 0.0000000e+00 
5.7142857e-02 1.7142858e-01 0.0000000e+00 
1.7142858e-01 5.7142857e-02 0.0000000e+00 
1.2857144e-01 1.2857144e-01 0.0000000e+00 
1.4285715e-01 1.1428571e-01 0.0000000e+00 
1.1428571e-01 1.4285715e-01 0.0000000e+00 
1.7142858e-01 7.1428575e-02 0.0000000e+00 
7.1428575e-02 1.7142858e-01 0.0000000e+00 
1.8571429e-01 0.0000000e+00 0.0000000e+00 
0.0000000e+00 1.8571429e-01 0.0000000e+00 
1.5714286e-01 1.0000000e-01 0.0000000e+00 
1.0000000e-01 1.5714286e-01 0.0000000e+00 
1.8571429e-01 1.4285714e-02 0.0000000e+00 
1.4285714e-02 1.8571429e-01 0.0000000e+00 
2.8571429e-02 1.8571429e-01 0.0000000e+00 
1.8571429e-01 2.8571429e-02 0.0000000e+00 
4.2857144e-02 1.8571429e-01 0.0000000e+00 
1.8571429e-01 4.2857144e-02 0.0000000e+00 
8.5714288e-02 1.7142858e-01 0.0000000e+00 
1.7142858e-01 8.5714288e-02 0.0000000e+00 
1.4285715e-01 1.2857144e-01 0.0000000e+00 
1.2857144e-01 1.4285715e-01 0.0000000e+00 
1.8571429e-01 5.7142857e-02 0.0000000e+00 
1.1428571e-01 1.5714286e-01 0.0000000e+00 
1.5714286e-01 1.1428571e-01 0.0000000e+00 
5.7142857e-02 1.8571429e-01 0.0000000e+00 
1.0000000e-01 1.7142858e-01 0.0000000e+00 
1.7142858e-01 1.0000000e-01 0.0000000e+00 
1.8571429e-01 7.1428575e-02 0.0000000e+00 
7.1428575e-02 1.8571429e-01 0.0000000e+00 
0.0000000e+00 2.0000000e-01 0.0000000e+00 
2.0000000e-01 0.0000000e+00 0.0000000e+00 
1.4285714e-02 2.0000000e-01 0.0000000e+00 
2.0000000e-01 1.4285714e-02 0.0000000e+00 
1.4285715e-01 1.4285715e-01 0.0000000e+00 
2.0000000e-01 2.8571429e-02 0.0000000e+00 
2.8571429e-02 2.0000000e-01 0.0000000e+00 
1.2857144e-01 1.5714286e-01 0.0000000e+00 
1.5714286e-01 1.2857144e-01 0.0000000e+00 
1.8571429e-01 8.5714288e-02 0.0000000e+00 
8.5714288e-02 1.8571429e-01 0.0000000e+00 
2.0000000e-01 4.2857144e-02 0.0000000e+00 
4.2857144e-02 2.0000000e-01 0.0000000e+00 
1.7142858e-01 1.1428571e-01 0.0000000e+00 
1.1428571e-01 1.7142858e-01 0.0000000e+00 
5.7142857e-02 2.0000000e-01 0.0000000e+00 
2.0000000e-01 5.7142857e-02 0.0000000e+00 
1.8571429e-01 1.0000000e-01 0.0000000e+00 
1.0000000e-01 1.8571429e-01 0.0000000e+00 
7.1428575e-02 2.0000000e-01 0.0000000e+00 
1.4285715e-01 1.5714286e-01 0.0000000e+00 
1.5714286e-01 1.4285715e-01 0.0000000e+00 
2.0000000e-01 7.1428575e-02 0.0000000e+00 
1.2857144e-01 1.7142858e-01 0.0000000e+00 
2.1428572e-01 0.0000000e+00 0.0000000e+00 
0.0000000e+00 2.1428572e-01 0.0000000e+00 
1.7142858e-01 1.2857144e-01 0.0000000e+00 
1.4285714e-02 2.1428572e-01 0.0000000e+00 
2.1428572e-01 1.4285714e-02 0.0000000e+00 
2.8571429e-02 2.1428572e-01 0.0000000e+00 
2.1428572e-01 2.8571429e-02 0.0000000e+00 
8.5714288e-02 2.0000000e-01 0.0000000e+00 
2.0000000e-01 8.5714288e-02 0.0000000e+00 
1.8571429e-01 1.1428571e-01 0.0000000e+00 
1.1428571e-01 1.8571429e-01 0.0000000e+00 
4.2857144e-02 2.1428572e-01 0.0000000e+00 
2.1428572e-01 4.2857144e-02 0.0000000e+00 
5.7142857e-02 2.1428572e-01 0.0000000e+00 
2.1428572e-01 5.7142857e-02 0.0000000e+00 
1.5714286e-01 1.5714286e-01 0.0000000e+00 
1.4285715e-01 1.7142858e-01 0.0000000e+00 
1.7142858e-01 1.4285715e-01 0.0000000e+00 
1.0000000e-01 2.0000000e-01 0.0000000e+00 
2.0000000e-01 1.0000000e-01 0.0000000e+00 
1.2857144e-01 1.8571429e-01 0.0000000e+00 
7.1428575e-02 2.1428572e-01 0.0000000e+00 
1.8571429e-01 1.2857144e-01 0.0000000e+00 
2.1428572e-01 7.1428575e-02 0.0000000e+00 
2.2857143e-01 0.0000000e+00 0.0000000e+00 
0.0000000e+00 2.2857143e-01 0.0000000e+00 
2.2857143e-01 1.4285714e-02 0.0000000e+00 
1.4285714e-02 2.2857143e-01 0.0000000e+00 
2.2857143e-01 2.8571429e-02 0.0000000e+00 
2.0000000e-01 1.1428571e-01 0.0000000e+00 
1.1428571e-01 2.0000000e-01 0.0000000e+00 
2.8571429e-02 2.2857143e-01 0.0000000e+00 
8.5714288e-02 2.1428572e-01 0.0000000e+00 
2.1428572e-01 8.5714288e-02 0.0000000e+00 
2.2857143e-01 4.2857144e-02 0.0000000e+00 
1.5714286e-01 1.7142858e-01 0.0000000e+00 
1.7142858e-01 1.5714286e-01 0.0000000e+00 
4.2857144e-02 2.2857143e-01 0.0000000e+00 
1.8571429e-01 1.4285715e-01 0.0000000e+00 
1.4285715e-01 1.8571429e-01 0.0000000e+00 
[...]
POINT_DATA 5041
FIELD FieldData 1
TEMPERATURE 1 5041  float
0.0000000e+00
0.0000000e+00
2.0618973e-02
2.1440526e-02
4.1196421e-02
0.0000000e+00
2.2073435e-02
4.2837590e-02
4.4102296e-02
6.1690904e-02
0.0000000e+00
2.2532636e-02
6.4148411e-02
6.6042505e-02
4.5019932e-02
8.2061149e-02
0.0000000e+00
8.5330181e-02
2.2825062e-02
6.7416847e-02
8.7849997e-02
4.5604225e-02
1.0226614e-01
8.9678399e-02
0.0000000e+00
6.8291865e-02
2.2963006e-02
1.0634028e-01
1.0948091e-01
4.5879722e-02
9.0842441e-02
6.8704300e-02
1.1175981e-01
0.0000000e+00
1.2226517e-01
1.2713639e-01
2.2961555e-02
1.3089167e-01
4.5876596e-02
1.1321062e-01
9.1390982e-02
1.3361663e-01
6.8699367e-02
1.4201799e-01
0.0000000e+00
1.1389419e-01
2.2836786e-02
1.4767665e-01
9.1384180e-02
1.3535137e-01
1.5203916e-01
4.5627002e-02
1.5520480e-01
6.8325244e-02
1.1388551e-01
1.3616866e-01
1.6148479e-01
0.0000000e+00
1.6791964e-01
9.0886153e-02
1.5722011e-01
2.2604484e-02
1.7288072e-01
4.5162503e-02
1.3615812e-01
1.7648083e-01
6.7629233e-02
1.1326452e-01
1.5816952e-01
1.7877272e-01
8.9959875e-02
1.8062639e-01
0.0000000e+00
1.8782459e-01
2.2279298e-02
1.9337440e-01
4.4512399e-02
1.3541542e-01
1.5815721e-01
1.1210975e-01
1.7985243e-01
1.9740181e-01
6.6655241e-02
8.8663779e-02
1.9996576e-01
1.5729429e-01
1.7983842e-01
1.9940422e-01
0.0000000e+00
1.3403444e-01
2.1874262e-02
2.0735140e-01
2.1347886e-01
4.3702744e-02
1.1049405e-01
2.0117368e-01
2.1792555e-01
6.5442316e-02
1.7885706e-01
1.5568988e-01
2.2075650e-01
8.7049842e-02
1.3210234e-01
2.0115806e-01
2.1778050e-01
0.0000000e+00
2.2646071e-01
2.1400567e-02
4.2755917e-02
2.3315358e-01
1.0848223e-01
2.2209027e-01
1.7703247e-01
1.5344524e-01
2.0006029e-01
2.3801069e-01
6.4023994e-02
2.2207312e-01
1.2969662e-01
8.5162677e-02
2.4110301e-01
2.3571818e-01
0.0000000e+00
1.7447984e-01
2.4511404e-01
1.9801922e-01
2.0867545e-02
1.0612991e-01
2.4255998e-01
4.1690573e-02
2.5235891e-01
2.2086120e-01
1.5065046e-01
6.2428206e-02
2.5761670e-01
2.4254142e-01
1.2688383e-01
8.3039485e-02
2.6096424e-01
1.9516376e-01
2.1860781e-01
1.7130162e-01
2.6254156e-01
1.0348348e-01
2.5318116e-01
0.0000000e+00
2.4121782e-01
1.4738283e-01
2.6327381e-01
2.0282773e-02
4.0521856e-02
2.7105612e-01
6.0677648e-02
2.7670410e-01
1.2371942e-01
2.6252165e-01
2.1545531e-01
1.9160852e-01
2.8030014e-01
1.6758573e-01
2.3875670e-01
8.0710448e-02
1.4370680e-01
2.6108909e-01
2.8199467e-01
1.0058056e-01
0.0000000e+00
2.7013427e-01
1.9652262e-02
2.8090343e-01
2.1153022e-01
2.8920758e-01
3.9261777e-02
1.8745188e-01
2.3531352e-01
2.8197351e-01
1.2024841e-01
2.9523438e-01
5.8790315e-02
2.5842521e-01
1.6340549e-01
7.8199513e-02
2.9907173e-01
2.8043491e-01
1.3967466e-01
9.7450987e-02
2.0694125e-01
2.3102656e-01
3.0088010e-01
1.8277587e-01
2.8654337e-01
0.0000000e+00
2.5469837e-01
1.8980687e-02
2.9796737e-01
3.7919685e-02
3.0677664e-01
1.1650646e-01
3.0085775e-01
2.7757370e-01
1.5882036e-01
5.6780200e-02
3.1317019e-01
7.5525291e-02
3.1724116e-01
2.2601451e-01
2.0177890e-01
2.5005817e-01
1.3532786e-01
2.9921624e-01
1.7764699e-01
9.4117969e-02
2.7357069e-01
3.1915975e-01
3.0237538e-01
0.0000000e+00
3.1443128e-01
1.8271640e-02
3.2372797e-01
2.9616347e-01
1.5387748e-01
3.6502749e-02
1.1252133e-01
3.1913629e-01
3.3047539e-01
2.2037625e-01
2.4463317e-01
5.4658044e-02
2.6858664e-01
1.9611666e-01
3.3477178e-01
7.2702073e-02
1.3069865e-01
3.1739521e-01
1.7211801e-01
2.9189238e-01
3.3679679e-01
9.0599313e-02
2.3853041e-01
1.4861351e-01
3.1415707e-01
3.1759846e-01
0.0000000e+00
2.1419206e-01
2.6275966e-01
1.7527860e-02
3.3026198e-01
3.3677226e-01
1.0831430e-01
3.5016440e-02
3.4002739e-01
1.9001272e-01
2.8657457e-01
5.2432038e-02
3.4711513e-01
3.3493513e-01
6.9740750e-02
1.2581171e-01
3.5162830e-01
3.0962652e-01
1.6622992e-01
2.5620469e-01
2.3183675e-01
3.5375562e-01
8.6908594e-02
2.0752554e-01
2.8035733e-01
1.4305654e-01
3.3151814e-01
0.0000000e+00
3.3218196e-01
1.6751457e-02
3.4542757e-01
1.8351240e-01
3.5373011e-01
3.0398566e-01
1.0390159e-01
3.5564205e-01
3.3464976e-02
3.6305583e-01
5.0108492e-02
3.2673731e-01
1.6001414e-01
2.4901509e-01
1.2068593e-01
3.5180065e-01
3.6777675e-01
6.6649720e-02
2.7336341e-01
2.2462107e-01
2.0042610e-01
2.9739073e-01
3.7000209e-01
8.3056264e-02
1.3722801e-01
3.4821171e-01
1.7665036e-01
3.2078478e-01
3.6997569e-01
9.9295713e-02
0.0000000e+00
3.4609649e-01
1.5944107e-02
3.5989755e-01
3.1851701e-02
3.7054053e-01
2.4126482e-01
2.6569238e-01
2.1693687e-01
2.8997195e-01
4.7692414e-02
3.7826544e-01
3.4319022e-01
1.5349466e-01
1.1533578e-01
3.6795777e-01
3.1382546e-01
3.8318455e-01
6.3435636e-02
1.9293167e-01
3.8550347e-01
7.9050601e-02
1.3114442e-01
3.6420411e-01
1.6945308e-01
3.3693802e-01
2.5742316e-01
2.8183496e-01
2.3301135e-01
3.8547620e-01
9.4506554e-02
2.0882517e-01
3.0599678e-01
0.0000000e+00
3.5931399e-01
3.7364271e-01
1.5107208e-02
3.0179409e-02
3.8469279e-01
1.4668989e-01
3.5895211e-01
4.5187984e-02
3.9271325e-01
1.8507113e-01
1.0977279e-01
3.8337392e-01
3.2962832e-01
3.9782068e-01
6.0104042e-02
2.4861707e-01
2.7306345e-01
3.5241282e-01
1.6194090e-01
3.7946311e-01
2.9741019e-01
2.2429875e-01
1.2481883e-01
7.4898541e-02
4.0022850e-01
2.0031723e-01
3.2140553e-01
4.0020043e-01
8.9542381e-02
3.7180790e-01
0.0000000e+00
1.4242014e-02
3.8663545e-01
1.3961448e-01
3.7399113e-01
3.9807031e-01
3.4476748e-01
1.7686670e-01
2.8450601e-02
1.0400654e-01
3.9801803e-01
4.2598940e-02
4.0637019e-01
2.6372251e-01
2.8815410e-01
2.3932114e-01
5.6659926e-02
4.1165566e-01
2.1516058e-01
3.1238669e-01
3.6717793e-01
1.5412997e-01
1.1826213e-01
3.9395794e-01
4.1414756e-01
7.0606269e-02
3.3616713e-01
1.9143711e-01
8.4410608e-02
4.1411871e-01
3.8827702e-01
2.5386199e-01
1.3228059e-01
2.7829713e-01
1.6833599e-01
3.5921240e-01
3.8355306e-01
0.0000000e+00
3.0266464e-01
2.2957118e-01
1.3349734e-02
3.9884952e-01
4.1064617e-01
2.6667690e-02
4.1186056e-01
9.8045625e-02
3.9928898e-02
4.1920877e-01
2.0562269e-01
3.2673422e-01
5.3108081e-02
1.4603369e-01
4.2466164e-01
3.8120368e-01
4.0765941e-01
1.8220386e-01
3.5025179e-01
1.1148412e-01
4.2723253e-01
6.6179767e-02
2.6789188e-01
2.9231152e-01
2.4351989e-01
3.1656581e-01
7.9118371e-02
2.1939474e-01
4.2720303e-01
3.7293392e-01
1.5949368e-01
4.0178099e-01
1.2469916e-01
3.9452577e-01
0.0000000e+00
4.1026038e-01
3.4042379e-01
1.9570552e-01
1.2431606e-02
9.1898337e-02
2.4833148e-02
4.2239505e-01
4.2487368e-01
4.3120310e-01
3.7181556e-02
1.3766415e-01
3.9446172e-01
3.6363116e-01
1.7263335e-01
4.3681237e-01
4.9453434e-02
2.5697851e-01
2.8138256e-01
1.0449420e-01
4.2053989e-01
2.3272543e-01
3.0573738e-01
4.3945715e-01
6.1625160e-02
3.2982954e-01
2.0881365e-01
1.5035294e-01
3.8590443e-01
4.3942699e-01
7.3672995e-02
1.1688072e-01
4.1447583e-01
1.8542613e-01
3.5342789e-01
4.0470397e-01
0.0000000e+00
1.1488949e-02
4.2084503e-01
4.3703115e-01
8.5573182e-02
2.6991984e-01
2.4558780e-01
2.9430670e-01
4.3329328e-01
2.2949612e-02
1.2903298e-01
4.0692535e-01
1.6273984e-01
3.7627822e-01
3.4360860e-02
4.4232905e-01
3.1854761e-01
2.2150175e-01
4.4808340e-01
4.5701221e-02
4.3257344e-01
9.7302034e-02
1.9784611e-01
3.4242910e-01
5.6948986e-02
4.5079672e-01
1.4092645e-01
3.9809778e-01
4.2633596e-01
3.6572021e-01
1.0883608e-01
1.7479981e-01
6.8082288e-02
4.5076600e-01
2.8231779e-01
2.5795582e-01
3.0663824e-01
2.3374414e-01
7.9079226e-02
3.3071640e-01
0.0000000e+00
4.1406715e-01
2.0986816e-01
4.4830847e-01
1.0523197e-02
4.3058214e-01
3.8816753e-01
1.5253706e-01
1.2015210e-01
4.4331893e-01
2.1019943e-02
4.1856948e-01
3.1471092e-02
4.5256418e-01
1.8650840e-01
3.5433903e-01
4.4373584e-01
8.9917943e-02
4.5845208e-01
4.1857149e-02
2.6980457e-01
2.9414728e-01
4.0948939e-01
1.3122724e-01
4.6122843e-01
2.4551609e-01
5.2158345e-02
1.6384131e-01
3.7727603e-01
2.2146796e-01
3.1835231e-01
4.3733746e-01
1.0057676e-01
4.6119720e-01
6.2354736e-02
3.4221917e-01
1.9784193e-01
3.9927506e-01
1.4203909e-01
4.5868292e-01
7.2426319e-02
1.1103421e-01
4.2259645e-01
4.2937067e-01
0.0000000e+00
4.3945211e-01
9.5359152e-03
1.7481628e-01
4.5245177e-01
3.6553541e-01
1.9047268e-02
2.5679377e-01
2.8111005e-01
2.8516939e-02
4.6188793e-01
3.0538446e-01
4.5400459e-01
8.2353123e-02
2.3262203e-01
4.6789744e-01
3.7927438e-02
3.2942528e-01
2.0877743e-01
4.2005634e-01
1.2126919e-01
1.5256575e-01
3.8807204e-01
4.7073129e-01
4.7260989e-02
4.4745824e-01
9.2115276e-02
3.5303277e-01
1.8543975e-01
5.6499608e-02
4.7069958e-01
4.0957853e-01
1.3126096e-01
2.6755443e-01
2.4330783e-01
2.9184949e-01
4.3930712e-01
3.7599561e-01
6.5625235e-02
4.6813366e-01
1.6278587e-01
1.0169315e-01
4.3027470e-01
0.0000000e+00
3.1600666e-01
2.1929277e-01
8.5288044e-03
4.4743708e-01
4.6067342e-01
1.7034985e-02
4.7028145e-01
2.5503486e-02
1.9569018e-01
4.6335903e-01
3.3983484e-01
7.4619800e-02
4.7640055e-01
3.9808652e-01
1.4098927e-01
3.3918861e-02
4.2977729e-01
1.1106739e-01
1.7267872e-01
3.6313540e-01
4.7928613e-01
4.2265352e-02
8.3465338e-02
4.5667782e-01
2.5350377e-01
2.7777636e-01
2.2936670e-01
3.0200121e-01
4.7925407e-01
5.0526991e-02
1.2021901e-01
4.1905710e-01
1.5043437e-01
3.8569859e-01
3.2599249e-01
2.0554683e-01
4.4835883e-01
9.2144035e-02
4.7664163e-01
5.8687683e-02
0.0000000e+00
4.3708643e-01
3.4956002e-01
1.8222426e-01
7.5037018e-03
4.5452097e-01
1.4986766e-02
4.6796733e-01
4.7178030e-01
6.6731311e-02
4.7772792e-01
2.2436230e-02
4.0729925e-01
1.2912941e-01
1.0063836e-01
4.3863276e-01
2.6318926e-01
4.8394424e-01
2.9838724e-02
1.5957710e-01
3.7250668e-01
2.8743893e-01
2.3897886e-01
2.1498975e-01
3.1154478e-01
3.7180550e-02
4.8687577e-01
4.6497774e-01
7.4641824e-02
1.9140314e-01
3.3532178e-01
4.2769176e-01
1.0893108e-01
4.8684335e-01
4.4447772e-02
3.9462480e-01
1.3778052e-01
4.5650762e-01
8.2403295e-02
3.5858119e-01
1.6839892e-01
4.8418969e-01
5.1626310e-02
2.7234477e-01
2.4810983e-01
4.4301793e-01
0.0000000e+00
6.4625703e-03
4.6068951e-01
1.2906532e-02
2.2399987e-01
2.9652262e-01
1.1700536e-01
4.1569173e-01
4.7431883e-01
4.7925144e-01
5.8702029e-02
3.8112777e-01
1.9321043e-02
9.0000033e-02
4.4660482e-01
4.8421228e-01
1.4615475e-01
3.2046089e-01
2.0019679e-01
2.5694838e-02
4.9051329e-01
1.7688194e-01
3.4397575e-01
6.5660819e-02
4.7234124e-01
3.2016311e-02
4.9348488e-01
1.2484476e-01
4.0275627e-01
9.7416624e-02
4.3546504e-01
3.8273588e-02
4.9345219e-01
3.6688021e-01
1.5423511e-01
2.5674117e-01
2.3255895e-01
2.8095180e-01
7.2488688e-02
4.6373701e-01
3.0500913e-01
4.4454630e-02
2.0858742e-01
4.9076262e-01
4.2324704e-01
1.0463797e-01
0.0000000e+00
1.8500897e-01
3.2873160e-01
4.4805723e-01
1.3243335e-01
5.4074866e-03
3.8898128e-01
4.6593031e-01
1.0798431e-02
4.7971508e-01
5.0547317e-02
4.5367748e-01
7.9171814e-02
4.8575744e-01
4.8972151e-01
1.6164137e-02
3.5193700e-01
1.6200522e-01
2.1495471e-02
4.9609452e-01
5.6539521e-02
4.7875348e-01
2.6782934e-02
2.6485547e-01
2.4064974e-01
4.1007659e-01
1.1164937e-01
4.9910018e-01
4.4236135e-01
8.5696615e-02
2.8899303e-01
2.1655808e-01
1.3975574e-01
3.7444034e-01
3.2016750e-02
4.9906731e-01
3.1288138e-01
1.9276358e-01
6.2419191e-02
4.7003251e-01
3.7186947e-02
1.6944930e-01
3.3634028e-01
4.9634722e-01
9.2049785e-02
4.2994997e-01
3.9605144e-01
1.1843655e-01
0.0000000e+00
4.5219421e-01
6.8174422e-02
4.3406263e-03
4.7023275e-01
4.5983645e-01
4.2283442e-02
4.9128518e-01
3.5918942e-01
8.6668115e-03
4.8414528e-01
1.4679702e-01
2.4825591e-01
2.7243638e-01
2.2409266e-01
4.9424449e-01
1.2972022e-02
2.9645225e-01
2.0013008e-01
1.7249277e-02
5.0067669e-01
9.8218389e-02
4.1657108e-01
4.8420155e-01
4.7296114e-02
3.8124639e-01
7.3793478e-02
4.4836679e-01
1.2498571e-01
1.7655230e-01
5.0371033e-01
2.1491211e-02
3.2012349e-01
2.5690163e-02
5.0367731e-01
3.4327158e-01
1.5354292e-01
4.7538140e-01
5.2214883e-02
1.0418983e-01
4.0232393e-01
5.0093228e-01
2.9838245e-02
4.3578702e-01
7.9264909e-02
2.5536209e-01
2.3117596e-01
2.0709360e-01
2.7946863e-01
3.6571848e-01
1.3128352e-01
5.7029780e-02
4.6506935e-01
4.5542055e-01
0.0000000e+00
4.9582350e-01
3.2642465e-03
1.8329984e-01
3.3927437e-02
3.0331442e-01
4.7358823e-01
6.5161823e-03
4.8760048e-01
9.7514531e-03
4.9777216e-01
1.5997976e-01
3.2672089e-01
4.2222661e-01
8.4577523e-02
1.2965244e-02
5.0425059e-01
1.0995194e-01
3.8728461e-01
3.7949651e-02
4.8867452e-01
6.1730970e-02
4.5346928e-01
5.0730610e-01
1.6152341e-02
3.4951156e-01
1.3731721e-01
2.3779370e-01
2.6195401e-01
2.1364006e-01
5.0727302e-01
1.9307211e-02
4.7977293e-01
4.1896805e-02
8.9720458e-02
1.8967828e-01
2.8593802e-01
4.0778622e-01
4.4074643e-01
6.6308826e-02
1.1549300e-01
2.2424076e-02
3.7151101e-01
5.0450844e-01
1.6609453e-01
3.0956572e-01
4.6936569e-01
4.5760870e-02
4.9936330e-01
2.5496991e-02
0.0000000e+00
4.5772973e-01
2.1806716e-03
1.4307451e-01
3.3266029e-01
4.7598997e-01
4.3511880e-03
4.9007368e-01
7.0753977e-02
4.2703182e-01
3.9254287e-01
9.4683215e-02
6.5093837e-03
5.0029737e-01
2.8519919e-02
4.5765850e-01
4.9533941e-02
2.1975628e-01
8.6526209e-03
5.0680894e-01
2.4393252e-01
4.9216333e-01
1.2080172e-01
3.5504764e-01
1.9567475e-01
2.6801834e-01
1.0777849e-02
5.0988019e-01
1.7187487e-01
2.9183155e-01
3.1486787e-02
4.8319826e-01
1.2881676e-02
5.0984710e-01
4.1242722e-01
7.5057298e-02
3.1519359e-01
1.4854379e-01
5.3208254e-02
9.9455670e-02
4.4481820e-01
3.7655532e-01
1.4960445e-02
5.0706863e-01
3.4391545e-02
4.7271678e-01
1.2586735e-01
3.3792973e-01
2.2542989e-01
5.0189745e-01
1.7010303e-02
2.4958006e-01
2.0127715e-01
0.0000000e+00
4.5911708e-01
3.9701059e-01
7.9209968e-02
1.0922741e-03
4.7743309e-01
4.3097702e-01
5.6776244e-02
4.9155995e-01
2.7354288e-01
1.7730907e-01
2.1765688e-03
5.0181502e-01
3.2529128e-03
1.0402809e-01
3.5986868e-01
4.6092606e-01
3.7228208e-02
2.9713732e-01
4.9466100e-01
1.9027274e-02
1.5371399e-01
4.3208515e-03
5.0834668e-01
5.3795045e-03
5.1142746e-01
3.2018664e-01
1.3067959e-01
4.1623768e-01
6.0230564e-02
2.1007309e-02
4.8565048e-01
8.3203502e-02
3.8084131e-01
6.4276303e-03
5.1139444e-01
3.9990909e-02
4.4799417e-01
2.0647418e-01
2.3064952e-01
1.0839120e-01
3.4251860e-01
5.0860769e-01
1.8238619e-01
7.4636992e-03
2.5472495e-01
4.7511584e-01
2.2946345e-02
1.5857463e-01
2.7851653e-01
6.3564107e-02
4.0067878e-01
4.2673912e-02
5.0342089e-01
8.4859598e-03
4.3405432e-01
3.6396495e-01
8.7029748e-02
4.5957986e-01
0.0000000e+00
1.3522872e-01
3.0184469e-01
1.4601499e-06
4.7791475e-01
4.9205628e-01
-2.8681720e-06
2.4840344e-02
4.6326536e-01
5.0232208e-01
-1.0761471e-05
4.9616250e-01
9.4925044e-03
-2.0488746e-05
1.1253612e-01
5.0886065e-01
3.2453486e-01
4.5271650e-02
4.1920984e-01
2.1125537e-01
5.1194477e-01
3.8436028e-01
6.6770017e-02
-3.0759486e-05
2.3540460e-01
1.8709598e-01
1.0481319e-02
4.8712465e-01
1.6311590e-01
2.5935683e-01
2.6685335e-02
4.5026797e-01
5.1191193e-01
-4.0660856e-05
9.0680905e-02
3.4641767e-01
1.3950554e-01
2.8292924e-01
-4.9591603e-05
5.0912243e-01
4.7655809e-01
1.1450338e-02
4.7778737e-02
4.0354005e-01
1.1645447e-01
3.0594414e-01
6.9841743e-02
2.8477427e-02
3.6732826e-01
4.3625745e-01
-5.7197936e-05
5.0393045e-01
4.5911708e-01
0.0000000e+00
4.7743395e-01
-1.0893485e-03
9.4149552e-02
1.2397477e-02
4.9156168e-01
4.6467173e-01
-2.1822837e-03
3.2822952e-01
1.9142897e-01
2.1561109e-01
-3.2743921e-03
2.3968557e-01
5.0181752e-01
1.6732867e-01
-6.3314845e-05
4.9666476e-01
-4.3617608e-03
5.0834984e-01
2.6346636e-01
1.4350139e-01
5.0189991e-02
3.8710523e-01
3.0212846e-02
4.2133778e-01
5.1143116e-01
-5.4409299e-03
7.2772987e-02
3.4961906e-01
1.3320668e-02
4.5163494e-01
1.2013830e-01
-6.7914742e-05
2.8677213e-01
4.8761782e-01
5.1139843e-01
-6.5088351e-03
9.7428642e-02
3.0942744e-01
-7.5627449e-03
3.1887945e-02
5.0861186e-01
4.0558863e-01
4.7704062e-01
-7.1064351e-05
5.2500442e-02
3.6995178e-01
1.9537640e-01
4.3758202e-01
1.4217878e-02
1.7120442e-01
2.1953255e-01
-8.6002005e-03
5.0342518e-01
1.4720823e-01
2.4348381e-01
3.3126312e-01
7.5557791e-02
-7.2889765e-05
4.6514228e-01
0.0000000e+00
4.5772973e-01
2.6704526e-01
4.7599167e-01
1.2358019e-01
-2.1777295e-03
-4.3568383e-03
4.9007717e-01
4.9616683e-01
-9.6189650e-03
3.8907057e-01
3.3499215e-02
5.0030237e-01
-6.5307324e-03
1.5087135e-02
4.2261720e-01
1.0051155e-01
2.9003751e-01
3.5211638e-01
5.4705348e-02
5.0681531e-01
-8.6933244e-03
4.5209241e-01
5.0988752e-01
-7.3549301e-05
-1.0838993e-02
-1.0616969e-02
4.8712900e-01
7.8190491e-02
3.1228760e-01
-1.2962529e-02
5.0985509e-01
1.9893034e-01
1.7473535e-01
1.5061857e-01
2.2301187e-01
4.0682039e-01
1.5926534e-02
3.5043299e-02
3.7183028e-01
-1.1592281e-02
4.7656247e-01
2.4679168e-01
1.2677318e-01
-1.5059076e-02
5.0707704e-01
-7.3213232e-05
4.3802536e-01
5.6800194e-02
3.3362958e-01
2.7008638e-01
1.0339203e-01
5.0190604e-01
-1.7124079e-02
-1.2543066e-02
4.6467611e-01
0.0000000e+00
4.5542055e-01
8.0665737e-02
3.9025238e-01
4.7359079e-01
-3.2612765e-03
2.9271877e-01
1.6734252e-02
4.8760566e-01
-6.5217246e-03
4.2304552e-01
3.5390455e-01
-1.9153226e-02
4.9466968e-01
3.6516994e-02
-7.2049501e-05
4.9777973e-01
-9.7725829e-03
1.7791437e-01
-1.3005603e-02
5.0426012e-01
1.5372556e-01
2.0208362e-01
5.8780711e-02
-1.3467575e-02
4.5163938e-01
3.1451881e-01
1.2971082e-01
2.2604206e-01
-1.6213017e-02
5.0731707e-01
-2.1142419e-02
4.8565918e-01
2.4960253e-01
1.0606426e-01
3.7295994e-01
1.7508544e-02
-1.9387476e-02
5.0728500e-01
4.0723288e-01
-7.0214235e-05
3.7917260e-02
3.3532417e-01
8.2978524e-02
-2.3087727e-02
4.7512457e-01
2.7258354e-01
-1.4364115e-02
4.3758658e-01
-2.2522015e-02
5.0452101e-01
6.0642865e-02
-2.5609987e-02
4.9937618e-01
2.9481050e-01
1.5652293e-01
1.8073504e-01
-2.4985364e-02
4.6327415e-01
3.9064828e-01
-6.7846246e-05
3.5498002e-01
1.8247761e-02
1.3238722e-01
2.0482990e-01
4.2262188e-01
-1.5231048e-02
0.0000000e+00
4.5219421e-01
4.7023618e-01
-4.3376163e-03
-2.8645024e-02
1.0852286e-01
4.9217632e-01
2.2861700e-01
-8.6722001e-03
4.8415220e-01
3.9241221e-02
-1.2992841e-02
3.1611663e-01
4.9425459e-01
5.0068939e-01
8.5124180e-02
2.5191069e-01
-1.7289151e-02
-2.6831668e-02
4.5027685e-01
4.8321128e-01
-3.1620998e-02
-2.1551225e-02
5.0372493e-01
-6.5064378e-05
3.7333852e-01
4.0682524e-01
-1.6066782e-02
6.2382884e-02
2.7453175e-01
3.3634344e-01
1.8950341e-02
-2.5769601e-02
5.0369322e-01
-3.4531992e-02
4.7272983e-01
-2.8623093e-02
4.3626654e-01
1.5900505e-01
-2.9935211e-02
5.0094897e-01
1.8319172e-01
1.3479696e-01
4.0486172e-02
2.9630852e-01
1.1076287e-01
2.0716366e-01
4.9584064e-01
3.9025745e-01
-3.4039337e-02
-1.6869769e-02
8.7098368e-02
-6.1967068e-05
3.5534060e-01
2.3073152e-01
4.6093923e-01
-3.7372272e-02
4.2134714e-01
-3.0356199e-02
3.1707785e-01
1.9614814e-02
6.3997246e-02
0.0000000e+00
4.4805723e-01
2.5371152e-01
-5.4044235e-03
4.6593457e-01
-3.8073562e-02
4.8869181e-01
-1.0803619e-02
4.7972372e-01
-1.6184554e-02
4.8973411e-01
4.4800752e-01
-4.0136281e-02
-2.1534717e-02
4.9611035e-01
4.1649580e-02
2.7592707e-01
3.7296525e-01
-1.7638505e-02
4.7979030e-01
-4.2029746e-02
-2.6842091e-02
3.3668536e-01
-5.8633363e-05
4.0559834e-01
-3.2027647e-02
1.6116692e-01
1.3693520e-01
4.9911839e-01
1.8527944e-01
1.1277979e-01
4.9908715e-01
-3.2095119e-02
2.0908020e-01
8.8897116e-02
2.9720980e-01
-4.2818625e-02
4.3406793e-01
2.0239804e-02
-4.5900002e-02
4.6938309e-01
2.3238136e-01
6.5482691e-02
4.9636808e-01
-3.7282657e-02
3.5498556e-01
-1.8371534e-02
-3.3634204e-02
3.8908070e-01
-4.2393923e-02
4.9130651e-01
4.5767602e-01
2.5500143e-01
4.2729087e-02
-4.9676660e-02
-5.5124816e-05
3.1740046e-01
-4.5414064e-02
4.1922387e-01
4.8422313e-01
4.4301793e-01
0.0000000e+00
-4.7418479e-02
1.3879766e-01
-6.4594406e-03
4.6069461e-01
1.6300419e-01
1.1456954e-01
2.7676672e-01
2.0824023e-02
-1.2911472e-02
4.7432917e-01
9.0516806e-02
1.8699402e-01
4.4483596e-01
-5.3352278e-02
-1.9340964e-02
4.8422736e-01
-3.5172753e-02
3.7184086e-01
-1.9067455e-02
3.3634925e-01
4.9053222e-01
-2.5733311e-02
4.0355459e-01
2.1057567e-01
6.6836230e-02
-5.2346192e-02
4.7540307e-01
-4.7917522e-02
-3.2074414e-02
4.9350667e-01
-5.1487943e-05
2.9751256e-01
2.3356320e-01
4.3722507e-02
-3.8350642e-02
4.3099517e-01
-5.6919616e-02
4.9347594e-01
-5.7167213e-02
4.6509108e-01
-4.4548795e-02
3.5391563e-01
-3.6640283e-02
4.9078757e-01
2.1366280e-02
2.5577775e-01
-5.0324097e-02
3.8712040e-01
-1.9724920e-02
3.1708390e-01
1.4038056e-01
1.1612854e-01
-6.1871957e-02
4.5349112e-01
-5.0656058e-02
9.1954164e-02
1.6451319e-01
4.8578301e-01
4.1625637e-01
-6.0371660e-02