# vtk DataFile Version 4.0
vtk output
ASCII
DATASET UNSTRUCTURED_GRID
POINTS 5041 float
0.0000000e+00 0.0000000e+00 0.0000000e+00 
0.0000000e+00 1.4285714e-02 0.0000000e+00 
1.4285714e-02 0.0000000e+00 0.0000000e+00 
1.4285714e-02 1.4285714e-02 0.0000000e+00 
2.8571429e-02 0.0000000e+00 0.0000000e+00 
0.0000000e+00 2.8571429e-02 0.0000000e+00 
1.4285714e-02 2.8571429e-02 0.0000000e+00 
2.8571429e-02 1.4285714e-02 0.0000000e+00 
2.8571429e-02 2.8571429e-02 0.0000000e+00 
4.2857144e-02 0.0000000e+00 0.0000000e+00 
0.0000000e+00 4.2857144e-02 0.0000000e+00 
1.4285714e-02 4.2857144e-02 0.0000000e+00 
4.2857144e-02 1.4285714e-02 0.0000000e+00 
4.2857144e-02 2.8571429e-02 0.0000000e+00 
2.8571429e-02 4.2857144e-02 0.0000000e+00 
5.7142857e-02 0.0000000e+00 0.0000000e+00 
0.0000000e+00 5.7142857e-02 0.0000000e+00 
5.7142857e-02 1.4285714e-02 0.0000000e+00 
1.4285714e-02 5.7142857e-02 0.0000000e+00 
4.2857144e-02 4.2857144e-02 0.0000000e+00 
5.7142857e-02 2.8571429e-02 0.0000000e+00 
2.8571429e-02 5.7142857e-02 0.0000000e+00 
7.1428575e-02 0.0000000e+00 0.0000000e+00 
5.7142857e-02 4.2857144e-02 0.0000000e+00 
0.0000000e+00 7.1428575e-02 0.0000000e+00 
4.2857144e-02 5.7142857e-02 0.0000000e+00 
1.4285714e-02 7.1428575e-02 0.0000000e+00 
7.1428575e-02 1.4285714e-02 0.0000000e+00 
7.1428575e-02 2.8571429e-02 0.0000000e+00 
2.8571429e-02 7.1428575e-02 0.0000000e+00 
5.7142857e-02 5.7142857e-02 0.0000000e+00 
4.2857144e-02 7.1428575e-02 0.0000000e+00 
7.1428575e-02 4.2857144e-02 0.0000000e+00 
0.0000000e+00 8.5714288e-02 0.0000000e+00 
8.5714288e-02 0.0000000e+00 0.0000000e+00 
8.5714288e-02 1.4285714e-02 0.0000000e+00 
1.4285714e-02 8.5714288e-02 0.0000000e+00 
8.5714288e-02 2.8571429e-02 0.0000000e+00 
2.8571429e-02 8.5714288e-02 0.0000000e+00 
7.1428575e-02 5.7142857e-02 0.0000000e+00 
5.7142857e-02 7.1428575e-02 0.0000000e+00 
8.5714288e-02 4.2857144e-02 0.0000000e+00 
4.2857144e-02 8.5714288e-02 0.0000000e+00 
1.0000000e-01 0.0000000e+00 0.0000000e+00 
0.0000000e+00 1.0000000e-01 0.0000000e+00 
7.1428575e-02 7.1428575e-02 0.0000000e+00 
1.4285714e-02 1.0000000e-01 0.0000000e+00 
1.0000000e-01 1.4285714e-02 0.0000000e+00 
5.7142857e-02 8.5714288e-02 0.0000000e+00 
8.5714288e-02 5.7142857e-02 0.0000000e+00 
1.0000000e-01 2.8571429e-02 0.0000000e+00 
2.8571429e-02 1.0000000e-01 0.0000000e+00 
1.0000000e-01 4.2857144e-02 0.0000000e+00 
4.2857144e-02 1.0000000e-01 0.0000000e+00 
7.1428575e-02 8.5714288e-02 0.0000000e+00 
8.5714288e-02 7.1428575e-02 0.0000000e+00 
1.1428571e-01 0.0000000e+00 0.0000000e+00 
0.0000000e+00 1.1428571e-01 0.0000000e+00 
1.1428571e-01 1.4285714e-02 0.0000000e+00 
5.7142857e-02 1.0000000e-01 0.0000000e+00 
1.0000000e-01 5.7142857e-02 0.0000000e+00 
1.4285714e-02 1.1428571e-01 0.0000000e+00 
1.1428571e-01 2.8571429e-02 0.0000000e+00 
2.8571429e-02 1.1428571e-01 0.0000000e+00 
8.5714288e-02 8.5714288e-02 0.0000000e+00 
1.1428571e-01 4.2857144e-02 0.0000000e+00 
4.2857144e-02 1.1428571e-01 0.0000000e+00 
7.1428575e-02 1.0000000e-01 0.0000000e+00 
1.0000000e-01 7.1428575e-02 0.0000000e+00 
1.1428571e-01 5.7142857e-02 0.0000000e+00 
5.7142857e-02 1.1428571e-01 0.0000000e+00 
1.2857144e-01 0.0000000e+00 0.0000000e+00 
0.0000000e+00 1.2857144e-01 0.0000000e+00 
1.2857144e-01 1.4285714e-02 0.0000000e+00 
1.4285714e-02 1.2857144e-01 0.0000000e+00 
1.2857144e-01 2.8571429e-02 0.0000000e+00 
2.8571429e-02 1.2857144e-01 0.0000000e+00 
8.5714288e-02 1.0000000e-01 0.0000000e+00 
1.0000000e-01 8.5714288e-02 0.0000000e+00 
7.1428575e-02 1.1428571e-01 0.0000000e+00 
1.1428571e-01 7.1428575e-02 0.0000000e+00 
1.2857144e-01 4.2857144e-02 0.0000000e+00 
4.2857144e-02 1.2857144e-01 0.0000000e+00 
5.7142857e-02 1.2857144e-01 0.0000000e+00 
1.2857144e-01 5.7142857e-02 0.0000000e+00 
1.0000000e-01 1.0000000e-01 0.0000000e+00 
1.1428571e-01 8.5714288e-02 0.0000000e+00 
1.4285715e-01 0.0000000e+00 0.0000000e+00 
0.0000000e+00 1.4285715e-01 0.0000000e+00 
8.5714288e-02 1.1428571e-01 0.0000000e+00 
1.4285714e-02 1.4285715e-01 0.0000000e+00 
1.4285715e-01 1.4285714e-02 0.0000000e+00 
1.4285715e-01 2.8571429e-02 0.0000000e+00 
2.8571429e-02 1.4285715e-01 0.0000000e+00 
7.1428575e-02 1.2857144e-01 0.0000000e+00 
1.2857144e-01 7.1428575e-02 0.0000000e+00 
1.4285715e-01 4.2857144e-02 0.0000000e+00 
4.2857144e-02 1.4285715e-01 0.0000000e+00 
1.1428571e-01 1.0000000e-01 0.0000000e+00 
1.0000000e-01 1.1428571e-01 0.0000000e+00 
1.4285715e-01 5.7142857e-02 0.0000000e+00 
5.7142857e-02 1.4285715e-01 0.0000000e+00 
8.5714288e-02 1.2857144e-01 0.0000000e+00 
1.2857144e-01 8.5714288e-02 0.0000000e+00 
1.5714286e-01 0.0000000e+00 0.0000000e+00 
0.0000000e+00 1.5714286e-01 0.0000000e+00 
1.5714286e-01 1.4285714e-02 0.0000000e+00 
1.4285714e-02 1.5714286e-01 0.0000000e+00 
2.8571429e-02 1.5714286e-01 0.0000000e+00 
1.5714286e-01 2.8571429e-02 0.0000000e+00 
7.1428575e-02 1.4285715e-01 0.0000000e+00 
1.4285715e-01 7.1428575e-02 0.0000000e+00 
1.1428571e-01 1.1428571e-01 0.0000000e+00 
1.0000000e-01 1.2857144e-01 0.0000000e+00 
1.2857144e-01 1.0000000e-01 0.0000000e+00 
1.5714286e-01 4.2857144e-02 0.0000000e+00 
4.2857144e-02 1.5714286e-01 0.0000000e+00 
1.4285715e-01 8.5714288e-02 0.0000000e+00 
8.5714288e-02 1.4285715e-01 0.0000000e+00 
5.7142857e-02 1.5714286e-01 0.0000000e+00 
1.5714286e-01 5.7142857e-02 0.0000000e+00 
1.7142858e-01 0.0000000e+00 0.0000000e+00 
0.0000000e+00 1.7142858e-01 0.0000000e+00 
1.1428571e-01 1.2857144e-01 0.0000000e+00 
1.7142858e-01 1.4285714e-02 0.0000000e+00 
1.2857144e-01 1.1428571e-01 0.0000000e+00 
1.4285714e-02 1.7142858e-01 0.0000000e+00 
7.1428575e-02 1.5714286e-01 0.0000000e+00 
1.5714286e-01 7.1428575e-02 0.0000000e+00 
2.8571429e-02 1.7142858e-01 0.0000000e+00 
1.7142858e-01 2.8571429e-02 0.0000000e+00 
1.4285715e-01 1.0000000e-01 0.0000000e+00 
1.0000000e-01 1.4285715e-01 0.0000000e+00 
4.2857144e-02 1.7142858e-01 0.0000000e+00 
1.7142858e-01 4.2857144e-02 0.0000000e+00 
1.5714286e-01 8.5714288e-02 0.0000000e+00 
8.5714288e-02 1.5714286e-01 0.0000000e+00 
5.7142857e-02 1.7142858e-01 0.0000000e+00 
1.7142858e-01 5.7142857e-02 0.0000000e+00 
1.2857144e-01 1.2857144e-01 0.0000000e+00 
1.4285715e-01 1.1428571e-01 0.0000000e+00 
1.1428571e-01 1.4285715e-01 0.0000000e+00 
1.7142858e-01 7.1428575e-02 0.0000000e+00 
7.1428575e-02 1.7142858e-01 0.0000000e+00 
1.8571429e-01 0.0000000e+00 0.0000000e+00 
0.0000000e+00 1.8571429e-01 0.0000000e+00 
1.5714286e-01 1.0000000e-01 0.0000000e+00 
1.0000000e-01 1.5714286e-01 0.0000000e+00 
1.8571429e-01 1.4285714e-02 0.0000000e+00 
1.4285714e-02 1.8571429e-01 0.0000000e+00 
2.8571429e-02 1.8571429e-01 0.0000000e+00 
1.8571429e-01 2.8571429e-02 0.0000000e+00 
4.2857144e-02 1.8571429e-01 0.0000000e+00 
1.8571429e-01 4.2857144e-02 0.0000000e+00 
8.5714288e-02 1.7142858e-01 0.0000000e+00 
1.7142858e-01 8.5714288e-02 0.0000000e+00 
1.4285715e-01 1.2857144e-01 0.0000000e+00 
1.2857144e-01 1.4285715e-01 0.0000000e+00 
1.8571429e-01 5.7142857e-02 0.0000000e+00 
1.1428571e-01 1.5714286e-01 0.0000000e+00 
1.5714286e-01 1.1428571e-01 0.0000000e+00 
5.7142857e-02 1.8571429e-01 0.0000000e+00 
1.0000000e-01 1.7142858e-01 0.0000000e+00 
1.7142858e-01 1.0000000e-01 0.0000000e+00 
1.8571429e-01 7.1428575e-02 0.0000000e+00 
7.1428575e-02 1.8571429e-01 0.0000000e+00 
0.0000000e+00 2.0000000e-01 0.0000000e+00 
2.0000000e-01 0.0000000e+00 0.0000000e+00 
1.4285714e-02 2.0000000e-01 0.0000000e+00 
2.0000000e-01 1.4285714e-02 0.0000000e+00 
1.4285715e-01 1.4285715e-01 0.0000000e+00 
2.0000000e-01 2.8571429e-02 0.0000000e+00 
2.8571429e-02 2.0000000e-01 0.0000000e+00 
1.2857144e-01 1.5714286e-01 0.0000000e+00 
1.5714286e-01 1.2857144e-01 0.0000000e+00 
1.8571429e-01 8.5714288e-02 0.0000000e+00 
8.5714288e-02 1.8571429e-01 0.0000000e+00 
2.0000000e-01 4.2857144e-02 0.0000000e+00 
4.2857144e-02 2.0000000e-01 0.0000000e+00 
1.7142858e-01 1.1428571e-01 0.0000000e+00 
1.1428571e-01 1.7142858e-01 0.0000000e+00 
5.7142857e-02 2.0000000e-01 0.0000000e+00 
2.0000000e-01 5.7142857e-02 0.0000000e+00 
1.8571429e-01 1.0000000e-01 0.0000000e+00 
1.0000000e-01 1.8571429e-01 0.0000000e+00 
7.1428575e-02 2.0000000e-01 0.0000000e+00 
1.4285715e-01 1.5714286e-01 0.0000000e+00 
1.5714286e-01 1.4285715e-01 0.0000000e+00 
2.0000000e-01 7.1428575e-02 0.0000000e+00 
1.2857144e-01 1.7142858e-01 0.0000000e+00 
2.1428572e-01 0.0000000e+00 0.0000000e+00 
0.0000000e+00 2.1428572e-01 0.0000000e+00 
1.7142858e-01 1.2857144e-01 0.0000000e+00 
1.4285714e-02 2.1428572e-01 0.0000000e+00 
2.1428572e-01 1.4285714e-02 0.0000000e+00 
2.8571429e-02 2.1428572e-01 0.0000000e+00 
2.1428572e-01 2.8571429e-02 0.0000000e+00 
8.5714288e-02 2.0000000e-01 0.0000000e+00 
2.0000000e-01 8.5714288e-02 0.0000000e+00 
1.8571429e-01 1.1428571e-01 0.0000000e+00 
1.1428571e-01 1.8571429e-01 0.0000000e+00 
4.2857144e-02 2.1428572e-01 0.0000000e+00 
2.1428572e-01 4.2857144e-02 0.0000000e+00 
5.7142857e-02 2.1428572e-01 0.0000000e+00 
2.1428572e-01 5.7142857e-02 0.0000000e+00 
1.5714286e-01 1.5714286e-01 0.0000000e+00 
1.4285715e-01 1.7142858e-01 0.0000000e+00 
1.7142858e-01 1.4285715e-01 0.0000000e+00 
1.0000000e-01 2.0000000e-01 0.0000000e+00 
2.0000000e-01 1.0000000e-01 0.0000000e+00 
1.2857144e-01 1.8571429e-01 0.0000000e+00 
7.1428575e-02 2.1428572e-01 0.0000000e+00 
1.8571429e-01 1.2857144e-01 0.0000000e+00 
2.1428572e-01 7.1428575e-02 0.0000000e+00 
2.2857143e-01 0.0000000e+00 0.0000000e+00 
0.0000000e+00 2.2857143e-01 0.0000000e+00 
2.2857143e-01 1.4285714e-02 0.0000000e+00 
1.4285714e-02 2.2857143e-01 0.0000000e+00 
2.2857143e-01 2.8571429e-02 0.0000000e+00 
2.0000000e-01 1.1428571e-01 0.0000000e+00 
1.1428571e-01 2.0000000e-01 0.0000000e+00 
2.8571429e-02 2.2857143e-01 0.0000000e+00 
8.5714288e-02 2.1428572e-01 0.0000000e+00 
2.1428572e-01 8.5714288e-02 0.0000000e+00 
2.2857143e-01 4.2857144e-02 0.0000000e+00 
1.5714286e-01 1.7142858e-01 0.0000000e+00 
1.7142858e-01 1.5714286e-01 0.0000000e+00 
4.2857144e-02 2.2857143e-01 0.0000000e+00 
1.8571429e-01 1.4285715e-01 0.0000000e+00 
1.4285715e-01 1.8571429e-01 0.0000000e+00 
[...]
POINT_DATA 5041
FIELD FieldData 1
TEMPERATURE 1 5041  float
-0.0000000e+00
0.0000000e+00
-3.1823732e-02
-3.1662270e-02
-6.3583381e-02
0.0000000e+00
-3.1337015e-02
-6.3263446e-02
-6.2614210e-02
-9.5214978e-02
0.0000000e+00
-3.0884650e-02
-9.4738573e-02
-9.3767345e-02
-6.1710387e-02
-1.2665482e-01
0.0000000e+00
-1.2602368e-01
-3.0343497e-02
-9.2414133e-02
-1.2473293e-01
-6.0629010e-02
-1.5783960e-01
-1.2293333e-01
0.0000000e+00
-9.0794764e-02
-2.9741712e-02
-1.5705545e-01
-1.5544812e-01
-5.9426494e-02
-1.2077936e-01
-8.8993937e-02
-1.5320601e-01
0.0000000e+00
-1.8870652e-01
-1.8777122e-01
-2.9098928e-02
-1.8585078e-01
-5.8142133e-02
-1.5052192e-01
-1.1838391e-01
-1.8317083e-01
-8.7070584e-02
-2.1919340e-01
0.0000000e+00
-1.4753677e-01
-2.8427882e-02
-2.1810901e-01
-1.1582550e-01
-1.7996214e-01
-2.1587949e-01
-5.6801382e-02
-2.1276720e-01
-8.5062876e-02
-1.4434853e-01
-1.7639339e-01
-2.4923885e-01
0.0000000e+00
-2.4800766e-01
-1.1315497e-01
-2.0904048e-01
-2.7735952e-02
-2.4547362e-01
-5.5418994e-02
-1.7258184e-01
-2.4193534e-01
-8.2992919e-02
-1.4102063e-01
-2.0489538e-01
-2.3769814e-01
-1.1040171e-01
-2.7878237e-01
0.0000000e+00
-2.7740690e-01
-2.7026553e-02
-2.7457350e-01
-5.4001771e-02
-1.6860335e-01
-2.0046823e-01
-1.3758972e-01
-2.3298509e-01
-2.7061638e-01
-8.0870882e-02
-1.0757928e-01
-2.6587728e-01
-1.9584724e-01
-2.2795133e-01
-3.0776447e-01
0.0000000e+00
-1.6450180e-01
-2.6300313e-02
-3.0624750e-01
-3.0312046e-01
-5.2550968e-02
-1.3407272e-01
-2.6060581e-01
-2.9875252e-01
-7.8698635e-02
-2.2269718e-01
-1.9108339e-01
-2.9352102e-01
-1.0469014e-01
-1.6029741e-01
-2.5497559e-01
-3.3612677e-01
0.0000000e+00
-3.3447134e-01
-2.5556065e-02
-5.1064231e-02
-3.3105695e-01
-1.3047266e-01
-2.8770176e-01
-2.1728067e-01
-1.8620016e-01
-2.4909888e-01
-3.2628697e-01
-7.6472633e-02
-2.8148642e-01
-1.5599382e-01
-1.0172958e-01
-3.2057366e-01
-3.6381215e-01
0.0000000e+00
-2.1172851e-01
-3.6202160e-01
-2.4304067e-01
-2.4791609e-02
-1.2678367e-01
-3.1421831e-01
-4.9537152e-02
-3.5832673e-01
-2.7499902e-01
-1.8120179e-01
-7.4186273e-02
-3.5316429e-01
-3.0743036e-01
-1.5158395e-01
-9.8688766e-02
-3.4698063e-01
-2.3683079e-01
-2.6831132e-01
-2.0604551e-01
-3.4010199e-01
-1.2299471e-01
-3.9076486e-01
0.0000000e+00
-3.0034536e-01
-1.7608005e-01
-3.8884276e-01
-2.4004310e-02
-4.7964454e-02
-3.8487485e-01
-7.1831621e-02
-3.7933031e-01
-1.4705463e-01
-3.3275512e-01
-2.6145628e-01
-2.3047464e-01
-3.7268877e-01
-2.0022228e-01
-2.9304162e-01
-9.5557146e-02
-1.7081961e-01
-3.2508674e-01
-3.6530066e-01
-1.1909262e-01
0.0000000e+00
-4.1693062e-01
-2.3191515e-02
-4.1488084e-01
-2.5443980e-01
-4.1064781e-01
-4.6340823e-02
-2.2396173e-01
-2.8555521e-01
-3.5740960e-01
-1.4239010e-01
-4.0473232e-01
-6.9400720e-02
-3.1718171e-01
-1.9424140e-01
-9.2324100e-02
-3.9764622e-01
-3.4917331e-01
-1.6540214e-01
-1.1506416e-01
-2.4725033e-01
-2.7789259e-01
-3.8976350e-01
-2.1727251e-01
-4.4225675e-01
0.0000000e+00
-3.0907899e-01
-2.2350842e-02
-4.4008338e-01
-4.4661500e-02
-4.3559372e-01
-1.3757448e-01
-3.8134420e-01
-3.4068286e-01
-1.8808199e-01
-6.6886418e-02
-4.2931920e-01
-8.8980123e-02
-4.2180279e-01
-2.7004108e-01
-2.3986630e-01
-3.0078563e-01
-1.5980920e-01
-3.7255654e-01
-2.1038362e-01
-1.1089744e-01
-3.3198017e-01
-4.1344133e-01
-4.6669221e-01
0.0000000e+00
-4.6439961e-01
-2.1480368e-02
-4.5966238e-01
-3.6349776e-01
-1.8172307e-01
-4.2922627e-02
-1.3259359e-01
-4.0451068e-01
-4.5304140e-01
-2.6197708e-01
-2.9228789e-01
-6.4282931e-02
-3.2307279e-01
-2.3226187e-01
-4.4510981e-01
-8.5517511e-02
-1.5402427e-01
-3.9518932e-01
-2.0327161e-01
-3.5421261e-01
-4.3628642e-01
-1.0658287e-01
-2.8356022e-01
-1.7514585e-01
-3.8558045e-01
-4.9018782e-01
0.0000000e+00
-2.5367245e-01
-3.1394592e-01
-2.0578712e-02
-4.8778057e-01
-4.2686236e-01
-1.2743589e-01
-4.1121446e-02
-4.8280528e-01
-2.2441110e-01
-3.4470913e-01
-6.1586119e-02
-4.7585118e-01
-4.1702610e-01
-8.1930742e-02
-1.4803398e-01
-4.6752036e-01
-3.7573156e-01
-1.9591540e-01
-3.0457217e-01
-2.7457210e-01
-4.5825276e-01
-1.0211355e-01
-2.4509877e-01
-3.3497152e-01
-1.6833511e-01
-4.0688646e-01
0.0000000e+00
-5.1269627e-01
-1.9645071e-02
-5.1017922e-01
-2.1629077e-01
-4.4835430e-01
-3.6565107e-01
-1.2209318e-01
-5.0497586e-01
-3.9256345e-02
-4.9770260e-01
-5.8793578e-02
-3.9649361e-01
-1.8829797e-01
-2.9491863e-01
-1.4182875e-01
-4.3802288e-01
-4.8898929e-01
-7.8216597e-02
-3.2497051e-01
-2.6529279e-01
-2.3623069e-01
-3.5532230e-01
-4.7929618e-01
-9.7485475e-02
-1.6127993e-01
-4.2737290e-01
-2.0788205e-01
-3.8585642e-01
-4.6894318e-01
-1.1656063e-01
0.0000000e+00
-5.3417224e-01
-1.8679205e-02
-5.3155041e-01
-3.7326843e-02
-5.2612942e-01
-2.8495240e-01
-3.1467104e-01
-2.5569484e-01
-3.4471419e-01
-5.5904575e-02
-5.1855165e-01
-4.1645700e-01
-1.8040712e-01
-1.3540298e-01
-4.5813742e-01
-3.7495732e-01
-5.0947344e-01
-7.4374124e-02
-2.2704764e-01
-4.9937424e-01
-9.2697434e-02
-1.5397397e-01
-4.4699854e-01
-1.9917145e-01
-4.0528455e-01
-3.0403796e-01
-3.3378953e-01
-2.7464390e-01
-4.8858759e-01
-1.1083680e-01
-2.4575594e-01
-3.6376345e-01
0.0000000e+00
-5.5457240e-01
-5.5185109e-01
-1.7681396e-02
-3.5333499e-02
-5.4622340e-01
-1.7223573e-01
-4.3558154e-01
-5.2919943e-02
-5.3835642e-01
-2.1753486e-01
-1.2875497e-01
-4.7732925e-01
-3.9383700e-01
-5.2893144e-01
-7.0404410e-02
-2.9303965e-01
-3.2251096e-01
-4.2389631e-01
-1.9015111e-01
-4.6572384e-01
-3.5223556e-01
-2.6396918e-01
-1.4641526e-01
-8.7750793e-02
-5.1844656e-01
-2.3546015e-01
-3.8207990e-01
-5.0724798e-01
-1.0492332e-01
-5.7385576e-01
0.0000000e+00
-1.6652381e-02
-5.7104039e-01
-1.6378161e-01
-4.5382875e-01
-5.6521738e-01
-4.1192338e-01
-2.0768376e-01
-3.3277787e-02
-1.2188666e-01
-4.9555969e-01
-4.9841896e-02
-5.5707693e-01
-3.1084499e-01
-3.4033421e-01
-2.8165060e-01
-6.6310406e-02
-5.4732430e-01
-2.5291112e-01
-3.6997199e-01
-4.4165424e-01
-1.8081863e-01
-1.3860603e-01
-4.8351115e-01
-5.3647476e-01
-8.2649224e-02
-3.9962673e-01
-2.2479814e-01
-9.8824576e-02
-5.2488679e-01
-4.7116190e-01
-2.9876456e-01
-1.5504719e-01
-3.2802409e-01
-1.9749172e-01
-4.2918006e-01
-5.9198344e-01
0.0000000e+00
-3.5747185e-01
-2.6985252e-01
-1.5593293e-02
-5.8907974e-01
-5.8307302e-01
-3.1161973e-02
-5.1279205e-01
-1.1480311e-01
-4.6673812e-02
-5.7467550e-01
-2.4145967e-01
-3.8696316e-01
-6.2096603e-02
-1.7117667e-01
-5.6461483e-01
-4.5852262e-01
-5.0032467e-01
-2.1376708e-01
-4.1636857e-01
-1.3055199e-01
-5.5342257e-01
-7.7398330e-02
-3.1527659e-01
-3.4454235e-01
-2.8625020e-01
-3.7388939e-01
-9.2547260e-02
-2.5763470e-01
-5.4146844e-01
-4.4557226e-01
-1.8696165e-01
-4.8754612e-01
-1.4603895e-01
-6.0891896e-01
0.0000000e+00
-6.0593271e-01
-4.0317488e-01
-2.2961180e-01
-1.4505586e-02
-1.0751210e-01
-2.8988959e-02
-5.9975445e-01
-5.2899170e-01
-5.9111679e-01
-4.3420050e-02
-1.6123237e-01
-4.7446752e-01
-4.3227178e-01
-2.0237011e-01
-5.8076829e-01
-5.7768799e-02
-3.0207115e-01
-3.3115342e-01
-1.2226202e-01
-5.1613045e-01
-2.7329060e-01
-3.6036652e-01
-5.6925577e-01
-7.2005324e-02
-3.8955376e-01
-2.4499387e-01
-1.7610134e-01
-4.6106705e-01
-5.5695963e-01
-8.6100012e-02
-1.3676676e-01
-5.0294840e-01
-2.1737088e-01
-4.1857448e-01
-6.2462819e-01
0.0000000e+00
-1.3390971e-02
-6.2156540e-01
-5.4412597e-01
-1.0002366e-01
-3.1728351e-01
-2.8839585e-01
-3.4636310e-01
-6.1522800e-01
-2.6762169e-02
-1.5099666e-01
-4.8945680e-01
-1.9061567e-01
-4.4730431e-01
-4.0085733e-02
-6.0636765e-01
-3.7546474e-01
-2.5988227e-01
-5.9575212e-01
-5.3333811e-02
-5.3089684e-01
-1.1374753e-01
-2.3193364e-01
-4.0443346e-01
-6.6478707e-02
-5.8394259e-01
-1.6492271e-01
-4.7563320e-01
-5.1733774e-01
-4.3313101e-01
-1.2724338e-01
-2.0474596e-01
-7.9492986e-02
-5.7132918e-01
-3.3185664e-01
-3.0292001e-01
-3.6087507e-01
-2.7424699e-01
-9.2349596e-02
-3.8980669e-01
0.0000000e+00
-6.3907951e-01
-2.4602903e-01
-5.5816436e-01
-1.2251364e-02
-6.3594639e-01
-4.6143597e-01
-1.7851666e-01
-1.4048360e-01
-6.2946260e-01
-2.4485420e-02
-5.0346035e-01
-3.6676582e-02
-6.2039733e-01
-2.1846369e-01
-4.1849855e-01
-5.4459405e-01
-1.0502192e-01
-6.0953617e-01
-4.8799250e-02
-3.1683391e-01
-3.4576124e-01
-4.8924145e-01
-1.5344118e-01
-5.9745336e-01
-2.8805915e-01
-6.0827963e-02
-1.9175093e-01
-4.4681516e-01
-2.5962865e-01
-3.7466010e-01
-5.3068519e-01
-1.1748384e-01
-5.8454812e-01
-7.2737522e-02
-4.0336344e-01
-2.3174115e-01
-4.7463825e-01
-1.6608974e-01
-5.7107872e-01
-8.4503077e-02
-1.2970980e-01
-6.5224379e-01
-5.1644993e-01
0.0000000e+00
-6.4904660e-01
-1.1088824e-02
-2.0459878e-01
-6.4242953e-01
-4.3172073e-01
-2.2162838e-02
-3.0129090e-01
-3.3010951e-01
-3.3198770e-02
-6.3317758e-01
-3.5896933e-01
-5.5719447e-01
-9.6100189e-02
-2.7270511e-01
-6.2209272e-01
-4.4173323e-02
-3.8769045e-01
-2.4455158e-01
-5.0186437e-01
-1.4167480e-01
-1.7840366e-01
-4.5959944e-01
-6.0976094e-01
-5.5063330e-02
-5.4296392e-01
-1.0750489e-01
-4.1610777e-01
-2.1703430e-01
-6.5845862e-02
-5.9658986e-01
-4.8688465e-01
-1.5335450e-01
-3.1391567e-01
-2.8523207e-01
-3.4272009e-01
-5.2839941e-01
-4.4407344e-01
-7.6498322e-02
-5.8284295e-01
-1.9035804e-01
-1.1869373e-01
-6.6409457e-01
0.0000000e+00
-3.7145433e-01
-2.5686923e-01
-9.9055208e-03
-6.6083974e-01
-6.5410268e-01
-1.9798752e-02
-6.4468271e-01
-2.9658781e-02
-2.2903240e-01
-5.6867272e-01
-3.9993995e-01
-8.6998485e-02
-6.3339639e-01
-4.7145808e-01
-1.6472520e-01
-3.9464660e-02
-5.1347661e-01
-1.2964381e-01
-2.0192873e-01
-4.2801407e-01
-6.2084055e-01
-4.9195558e-02
-9.7324595e-02
-5.5414915e-01
-2.9718438e-01
-3.2590806e-01
-2.6866928e-01
-3.5464033e-01
-6.0743010e-01
-5.8830861e-02
-1.4033282e-01
-4.9815050e-01
-1.7576389e-01
-4.5553175e-01
-3.8319120e-01
-2.4056894e-01
-5.3928471e-01
-1.0745537e-01
-5.9343344e-01
-6.8350263e-02
0.0000000e+00
-6.7460793e-01
-4.1138393e-01
-2.1309243e-01
-8.7036937e-03
-6.7130208e-01
-1.7397640e-02
-6.6445857e-01
-5.7900578e-01
-7.7733807e-02
-6.5488952e-01
-2.6063323e-02
-4.8236722e-01
-1.5073904e-01
-1.1737001e-01
-5.2405471e-01
-3.0853799e-01
-6.4342457e-01
-3.4682188e-02
-1.8644829e-01
-4.3905830e-01
-3.3724394e-01
-2.7992800e-01
-2.5162071e-01
-3.6584625e-01
-4.3235771e-02
-6.3066989e-01
-5.6421840e-01
-8.6961977e-02
-2.2382666e-01
-3.9415625e-01
-5.0841308e-01
-1.2704830e-01
-6.1704707e-01
-5.1705815e-02
-4.6607265e-01
-1.6084142e-01
-5.4908401e-01
-9.6015684e-02
-4.2199937e-01
-1.9675685e-01
-6.0282880e-01
-6.0074344e-02
-3.1927007e-01
-2.9062277e-01
-6.8376267e-01
0.0000000e+00
-7.4856323e-03
-6.8041247e-01
-1.4964074e-02
-2.6216546e-01
-3.4790051e-01
-1.3647056e-01
-4.9230489e-01
-6.7347634e-01
-5.8817273e-01
-6.8323717e-02
-4.4921830e-01
-2.2419246e-02
-1.0487631e-01
-5.3357744e-01
-6.6377747e-01
-1.7061955e-01
-3.7631530e-01
-2.3410983e-01
-2.9835012e-02
-6.5215689e-01
-2.0666882e-01
-4.0432742e-01
-7.6436676e-02
-5.7315135e-01
-3.7195317e-02
-6.3922912e-01
-1.4561769e-01
-4.7567490e-01
-1.1352574e-01
-5.1765180e-01
-4.4484295e-02
-6.2542135e-01
-4.3176490e-01
-1.8005371e-01
-3.0073208e-01
-2.7218205e-01
-3.2935905e-01
-8.4396377e-02
-5.5777746e-01
-3.5785636e-01
-5.1686335e-02
-2.4392125e-01
-6.1101019e-01
-5.0125110e-01
-1.2194636e-01
0.0000000e+00
-2.1616429e-01
-3.8602644e-01
-6.9154048e-01
-1.5447122e-01
-6.2536509e-03
-4.5847359e-01
-6.8815261e-01
-1.2502681e-02
-6.8113774e-01
-5.8786135e-02
-5.4202557e-01
-9.2186406e-02
-5.9615523e-01
-6.7132866e-01
-1.8733473e-02
-4.1368431e-01
-1.8912491e-01
-2.4932345e-02
-6.5957588e-01
-6.5768749e-02
-5.8093005e-01
-3.1085685e-02
-3.1023562e-01
-2.8165027e-01
-4.8431918e-01
-1.3012111e-01
-6.4650100e-01
-5.2584797e-01
-9.9790789e-02
-3.3878464e-01
-2.5324121e-01
-1.6301329e-01
-4.4066089e-01
-3.7180036e-02
-6.3253617e-01
-3.6709145e-01
-2.2522414e-01
-7.2619587e-02
-5.6534767e-01
-4.3202188e-02
-1.9781493e-01
-3.9496011e-01
-6.1796105e-01
-1.0719402e-01
-5.0918788e-01
-4.6680555e-01
-1.3803345e-01
0.0000000e+00
-6.9792557e-01
-7.9324469e-02
-5.0100787e-03
-6.9450688e-01
-5.4938215e-01
-4.9139205e-02
-6.0293716e-01
-4.2220807e-01
-1.0018112e-02
-6.8742752e-01
-1.7122672e-01
-2.9055119e-01
-3.1911424e-01
-2.6205099e-01
-6.7752790e-01
-1.5012975e-02
-3.4752789e-01
-2.3383018e-01
-1.9983463e-02
-6.6566664e-01
-1.1438107e-01
-4.9198809e-01
-5.8753884e-01
-5.4978475e-02
-4.4866940e-01
-8.5869610e-02
-5.3298521e-01
-1.4566743e-01
-2.0610628e-01
-6.5247095e-01
-2.4918422e-02
-3.7558722e-01
-2.9806849e-02
-6.3837713e-01
-4.0309834e-01
-1.7909500e-01
-5.7177937e-01
-6.0707707e-02
-1.2133742e-01
-4.7419742e-01
-6.2366736e-01
-3.4637947e-02
-5.1609921e-01
-9.2241637e-02
-2.9886681e-01
-2.7033287e-01
-2.4196512e-01
-3.2735017e-01
-4.2988151e-01
-1.5300770e-01
-6.6314973e-02
-5.5563235e-01
-7.0290518e-01
0.0000000e+00
-6.0850483e-01
-3.7572493e-03
-2.1398230e-01
-3.9401174e-02
-3.5557118e-01
-6.9946253e-01
-7.5150323e-03
-6.9233286e-01
-1.1264733e-02
-6.8236274e-01
-1.8660231e-01
-3.8332656e-01
-4.9866623e-01
-9.8427594e-02
-1.4997648e-02
-6.7041677e-01
-1.2804903e-01
-4.5577437e-01
-4.4086270e-02
-5.9296441e-01
-7.1788698e-02
-5.3904909e-01
-6.5712690e-01
-1.8705109e-02
-4.1042474e-01
-1.6003948e-01
-2.7807021e-01
-3.0658048e-01
-2.4961260e-01
-6.4293247e-01
-2.2378573e-02
-5.7705951e-01
-4.8683271e-02
-1.0441495e-01
-2.2142719e-01
-3.3492675e-01
-4.8063430e-01
-5.2197117e-01
-7.7117659e-02
-1.3450238e-01
-2.6009684e-02
-4.3668923e-01
-6.2811774e-01
-1.9373356e-01
-3.6289835e-01
-5.6076360e-01
-5.3182527e-02
-6.1284703e-01
-2.9590314e-02
0.0000000e+00
-7.0646918e-01
-2.4974961e-03
-1.6674867e-01
-3.9029390e-01
-7.0300955e-01
-4.9981023e-03
-6.9584394e-01
-8.2291000e-02
-5.0434011e-01
-4.6196145e-01
-1.1019166e-01
-7.4957302e-03
-6.8582332e-01
-3.3112578e-02
-5.4402733e-01
-5.7574682e-02
-2.5675729e-01
-9.9841906e-03
-6.7381674e-01
-2.8524747e-01
-5.9719580e-01
-1.4068453e-01
-4.1692463e-01
-2.2842599e-01
-3.1367669e-01
-1.2457317e-02
-6.6045946e-01
-2.0047446e-01
-3.4182882e-01
-3.6568854e-02
-5.8117753e-01
-1.4909046e-02
-6.4619303e-01
-4.8610327e-01
-8.7298244e-02
-3.6949468e-01
-1.7312180e-01
-6.1850693e-02
-1.1574606e-01
-5.2679199e-01
-4.4261748e-01
-1.7333478e-02
-6.3130319e-01
-3.9951775e-02
-5.6476551e-01
-1.4658304e-01
-3.9647523e-01
-2.6338479e-01
-6.1595505e-01
-1.9724909e-02
-2.9185024e-01
-2.3496464e-01
0.0000000e+00
-7.0861048e-01
-4.6721819e-01
-9.2129290e-02
-1.2331492e-03
-7.0514077e-01
-5.0899827e-01
-6.6001832e-02
-6.9795370e-01
-3.2014114e-01
-2.0681144e-01
-2.4719788e-03
-6.8790275e-01
-3.7129382e-03
-1.2106702e-01
-4.2258483e-01
-5.4791003e-01
-4.3254245e-02
-3.4804246e-01
-6.0022455e-01
-2.2077847e-02
-1.7914605e-01
-4.9523660e-03
-6.7585981e-01
-6.1866059e-03
-6.6246200e-01
-3.7534687e-01
-1.5218610e-01
-4.9059328e-01
-7.0019670e-02
-2.4387021e-02
-5.8412522e-01
-9.6774407e-02
-4.4765440e-01
-7.4120881e-03
-6.4815223e-01
-4.6469405e-02
-5.3055185e-01
-2.4103001e-01
-2.6948181e-01
-1.2614384e-01
-4.0185809e-01
-6.3321728e-01
-2.1273182e-01
-8.6253779e-03
-2.9786518e-01
-5.6763005e-01
-2.6647376e-02
-1.8480936e-01
-3.2596084e-01
-7.3896103e-02
-4.7153401e-01
-4.9590666e-02
-6.1782265e-01
-9.8232096e-03
-5.1263142e-01
-4.2739403e-01
-1.0122428e-01
-7.0932472e-01
0.0000000e+00
-1.5748245e-01
-3.5355517e-01
3.3463082e-05
-7.0585197e-01
-6.9865781e-01
5.8687016e-05
-2.8854068e-02
-5.5068928e-01
-6.8859684e-01
7.6677577e-05
-6.0204458e-01
-1.1002492e-02
8.8561988e-05
-1.3096638e-01
-6.7654175e-01
-3.8044316e-01
-5.2611675e-02
-4.9409530e-01
-2.4660990e-01
-6.6313034e-01
-4.5178977e-01
-7.7623323e-02
9.5477553e-05
-2.7503607e-01
-2.1822368e-01
-1.2160317e-02
-5.8589649e-01
-1.9010036e-01
-3.0328023e-01
-3.1002454e-02
-5.3324330e-01
-6.4880621e-01
9.8496377e-05
-1.0546999e-01
-4.0643167e-01
-1.6246146e-01
-3.3112407e-01
9.8578930e-05
-6.3385612e-01
-5.6935149e-01
-1.3293946e-02
-5.5526327e-02
-4.7490025e-01
-1.3552493e-01
-3.5835585e-01
-8.1193864e-02
-3.3088084e-02
-4.3134251e-01
-5.1523221e-01
9.6550022e-05
-6.1844605e-01
-7.0861048e-01
0.0000000e+00
-7.0514166e-01
1.3000147e-03
-1.0950302e-01
-1.4400803e-02
-6.9795501e-01
-5.5235958e-01
2.5892474e-03
-3.8477328e-01
-2.2327599e-01
-2.5169310e-01
3.8661570e-03
-2.8003642e-01
-6.8790418e-01
-1.9500840e-01
9.3091316e-05
-6.0265207e-01
5.1293345e-03
-6.7586124e-01
-3.0808449e-01
-1.6711318e-01
-5.8328766e-02
-4.5501530e-01
-3.5106692e-02
-4.9660227e-01
-6.6246331e-01
6.3773957e-03
-8.4600568e-02
-4.1018677e-01
-1.5478458e-02
-5.3486085e-01
-1.3981038e-01
8.8745357e-05
-3.3562046e-01
-5.8648783e-01
-6.4815348e-01
7.6089129e-03
-1.1331530e-01
-3.6243483e-01
8.8223713e-03
-3.7054196e-02
-6.3321853e-01
-4.7731009e-01
-5.6992632e-01
8.3927167e-05
-6.1013371e-02
-4.3442231e-01
-2.2787860e-01
-5.1679534e-01
-1.6524620e-02
-1.9952366e-01
-2.5626940e-01
1.0016151e-02
-6.1782396e-01
-1.7142825e-01
-2.8447279e-01
-3.8832852e-01
-8.7836623e-02
7.8940087e-05
-5.5291742e-01
0.0000000e+00
-7.0646918e-01
-3.1226832e-01
-7.0301127e-01
-1.4381413e-01
2.5641792e-03
5.1150541e-03
-6.9584656e-01
-6.0204595e-01
1.1188526e-02
-4.5732448e-01
-3.8926683e-02
-6.8582618e-01
7.6485393e-03
-1.7537119e-02
-4.9810916e-01
-1.1689919e-01
-3.3944094e-01
-4.1311577e-01
-6.3574784e-02
-6.7381960e-01
1.0160692e-02
-5.3540128e-01
-6.6046214e-01
7.3993535e-05
1.2647610e-02
1.2337668e-02
-5.8589810e-01
-9.0895563e-02
-3.6578393e-01
1.5105366e-02
-6.4619553e-01
-2.3202226e-01
-2.0363705e-01
-1.7539799e-01
-2.6032957e-01
-4.7875869e-01
-1.8513890e-02
-4.0720407e-02
-4.3662724e-01
1.3461671e-02
-5.6935340e-01
-2.8833625e-01
-1.4752814e-01
1.7529974e-02
-6.3130563e-01
6.9220856e-05
-5.1731777e-01
-6.6007882e-02
-3.9110172e-01
-3.1582326e-01
-1.2024753e-01
-6.1595762e-01
1.9917373e-02
1.4558564e-02
-5.5236179e-01
0.0000000e+00
-7.0290518e-01
-9.3771264e-02
-4.5871267e-01
-6.9946516e-01
3.8236277e-03
-3.4257784e-01
-1.9452980e-02
-6.9233680e-01
7.6314542e-03
-4.9861291e-01
-4.1521284e-01
2.2263430e-02
-6.0022742e-01
-4.2431802e-02
6.4696156e-05
-6.8236703e-01
1.1416857e-02
-2.0734031e-01
1.5173367e-02
-6.7042100e-01
-1.7901447e-01
-2.3569863e-01
-6.8307824e-02
1.5626337e-02
-5.3486347e-01
-3.6839640e-01
-1.5094498e-01
-2.6386547e-01
1.8894570e-02
-6.5713084e-01
2.4563953e-02
-5.8412844e-01
-2.9161906e-01
-1.2335359e-01
-4.3795288e-01
-2.0352526e-02
2.2574048e-02
-6.4293623e-01
-4.7924313e-01
6.0449347e-05
-4.4057466e-02
-3.9308727e-01
-9.6457981e-02
2.6814714e-02
-5.6763387e-01
-3.1874219e-01
1.6662965e-02
-5.1679838e-01
2.6205350e-02
-6.2812144e-01
-7.0470020e-02
2.9781979e-02
-6.1285084e-01
-3.4502482e-01
-1.8227039e-01
-2.1062599e-01
2.9011475e-02
-5.5069381e-01
-4.5917711e-01
5.6479072e-05
-4.1647369e-01
-2.1210760e-02
-1.5405779e-01
-2.3890033e-01
-4.9811253e-01
1.7666420e-02
0.0000000e+00
-6.9792557e-01
-6.9451040e-01
5.0760289e-03
3.3297405e-02
-1.2621117e-01
-5.9720004e-01
-2.6686999e-01
1.0133789e-02
-6.8743271e-01
-4.5594174e-02
1.5164135e-02
-3.7026694e-01
-6.7753369e-01
-6.6567224e-01
-9.8950334e-02
-2.9431456e-01
2.0158080e-02
3.1150008e-02
-5.3324854e-01
-5.8118242e-01
3.6745079e-02
2.5106713e-02
-6.5247625e-01
5.2763313e-05
-4.3839654e-01
-4.7876245e-01
1.8634707e-02
-7.2490148e-02
-3.2101917e-01
-3.9428121e-01
-2.2025997e-02
3.0001134e-02
-6.3838208e-01
4.0118463e-02
-5.6477123e-01
3.3226129e-02
-5.1523817e-01
-1.8515922e-01
3.4832437e-02
-6.2367225e-01
-2.1348749e-01
-1.5686031e-01
-4.7038876e-02
-3.4677699e-01
-1.2881450e-01
-2.4162091e-01
-6.0850990e-01
-4.5871678e-01
3.9591707e-02
1.9565864e-02
-1.0124334e-01
4.9267888e-05
-4.1689587e-01
-2.6933703e-01
-5.4791677e-01
4.3411050e-02
-4.9660903e-01
3.5235725e-02
-3.7139183e-01
-2.2796646e-02
-7.4364185e-02
0.0000000e+00
-6.9154048e-01
-2.9641736e-01
6.3190465e-03
-6.8815696e-01
4.4270027e-02
-5.9297001e-01
1.2617392e-02
-6.8114430e-01
1.8883385e-02
-6.7133588e-01
-5.3055972e-01
4.6616413e-02
2.5105538e-02
-6.5958297e-01
-4.8388701e-02
-3.2264972e-01
-4.3795732e-01
2.0457983e-02
-5.7706600e-01
4.8858501e-02
3.1272452e-02
-3.9468113e-01
4.5952856e-05
-4.7731760e-01
3.7174765e-02
-1.8767516e-01
-1.5934689e-01
-6.4650762e-01
-2.1591903e-01
-1.3115840e-01
-6.3254237e-01
3.7372775e-02
-2.4385490e-01
-1.0333239e-01
-3.4783077e-01
4.9728211e-02
-5.1264042e-01
-2.3521200e-02
5.3348288e-02
-5.6077117e-01
-2.7126169e-01
-7.6088384e-02