# vtk DataFile Version 4.0
vtk output
ASCII
DATASET UNSTRUCTURED_GRID
POINTS 961 float
1.0000000e+00 1.0000000e+00 0.0000000e+00 
9.6666664e-01 1.0000000e+00 0.0000000e+00 
1.0000000e+00 9.6666664e-01 0.0000000e+00 
9.6666664e-01 9.6666664e-01 0.0000000e+00 
9.3333334e-01 1.0000000e+00 0.0000000e+00 
1.0000000e+00 9.3333334e-01 0.0000000e+00 
9.6666664e-01 9.3333334e-01 0.0000000e+00 
9.3333334e-01 9.6666664e-01 0.0000000e+00 
9.3333334e-01 9.3333334e-01 0.0000000e+00 
1.0000000e+00 8.9999998e-01 0.0000000e+00 
8.9999998e-01 1.0000000e+00 0.0000000e+00 
8.9999998e-01 9.6666664e-01 0.0000000e+00 
9.6666664e-01 8.9999998e-01 0.0000000e+00 
9.3333334e-01 8.9999998e-01 0.0000000e+00 
8.9999998e-01 9.3333334e-01 0.0000000e+00 
1.0000000e+00 8.6666667e-01 0.0000000e+00 
8.6666667e-01 1.0000000e+00 0.0000000e+00 
9.6666664e-01 8.6666667e-01 0.0000000e+00 
8.6666667e-01 9.6666664e-01 0.0000000e+00 
8.9999998e-01 8.9999998e-01 0.0000000e+00 
8.6666667e-01 9.3333334e-01 0.0000000e+00 
9.3333334e-01 8.6666667e-01 0.0000000e+00 
8.3333331e-01 1.0000000e+00 0.0000000e+00 
1.0000000e+00 8.3333331e-01 0.0000000e+00 
8.9999998e-01 8.6666667e-01 0.0000000e+00 
8.6666667e-01 8.9999998e-01 0.0000000e+00 
8.3333331e-01 9.6666664e-01 0.0000000e+00 
9.6666664e-01 8.3333331e-01 0.0000000e+00 
9.3333334e-01 8.3333331e-01 0.0000000e+00 
8.3333331e-01 9.3333334e-01 0.0000000e+00 
8.6666667e-01 8.6666667e-01 0.0000000e+00 
8.9999998e-01 8.3333331e-01 0.0000000e+00 
8.3333331e-01 8.9999998e-01 0.0000000e+00 
1.0000000e+00 8.0000001e-01 0.0000000e+00 
8.0000001e-01 1.0000000e+00 0.0000000e+00 
9.6666664e-01 8.0000001e-01 0.0000000e+00 
8.0000001e-01 9.6666664e-01 0.0000000e+00 
8.0000001e-01 9.3333334e-01 0.0000000e+00 
9.3333334e-01 8.0000001e-01 0.0000000e+00 
8.3333331e-01 8.6666667e-01 0.0000000e+00 
8.6666667e-01 8.3333331e-01 0.0000000e+00 
8.9999998e-01 8.0000001e-01 0.0000000e+00 
8.0000001e-01 8.9999998e-01 0.0000000e+00 
1.0000000e+00 7.6666665e-01 0.0000000e+00 
7.6666665e-01 1.0000000e+00 0.0000000e+00 
9.6666664e-01 7.6666665e-01 0.0000000e+00 
7.6666665e-01 9.6666664e-01 0.0000000e+00 
8.3333331e-01 8.3333331e-01 0.0000000e+00 
8.6666667e-01 8.0000001e-01 0.0000000e+00 
8.0000001e-01 8.6666667e-01 0.0000000e+00 
7.6666665e-01 9.3333334e-01 0.0000000e+00 
9.3333334e-01 7.6666665e-01 0.0000000e+00 
8.9999998e-01 7.6666665e-01 0.0000000e+00 
7.6666665e-01 8.9999998e-01 0.0000000e+00 
8.0000001e-01 8.3333331e-01 0.0000000e+00 
8.3333331e-01 8.0000001e-01 0.0000000e+00 
7.3333335e-01 1.0000000e+00 0.0000000e+00 
1.0000000e+00 7.3333335e-01 0.0000000e+00 
7.6666665e-01 8.6666667e-01 0.0000000e+00 
7.3333335e-01 9.6666664e-01 0.0000000e+00 
9.6666664e-01 7.3333335e-01 0.0000000e+00 
8.6666667e-01 7.6666665e-01 0.0000000e+00 
9.3333334e-01 7.3333335e-01 0.0000000e+00 
7.3333335e-01 9.3333334e-01 0.0000000e+00 
8.0000001e-01 8.0000001e-01 0.0000000e+00 
8.9999998e-01 7.3333335e-01 0.0000000e+00 
7.3333335e-01 8.9999998e-01 0.0000000e+00 
8.3333331e-01 7.6666665e-01 0.0000000e+00 
7.6666665e-01 8.3333331e-01 0.0000000e+00 
8.6666667e-01 7.3333335e-01 0.0000000e+00 
7.3333335e-01 8.6666667e-01 0.0000000e+00 
1.0000000e+00 6.9999999e-01 0.0000000e+00 
6.9999999e-01 1.0000000e+00 0.0000000e+00 
9.6666664e-01 6.9999999e-01 0.0000000e+00 
6.9999999e-01 9.6666664e-01 0.0000000e+00 
7.6666665e-01 8.0000001e-01 0.0000000e+00 
8.0000001e-01 7.6666665e-01 0.0000000e+00 
9.3333334e-01 6.9999999e-01 0.0000000e+00 
6.9999999e-01 9.3333334e-01 0.0000000e+00 
8.3333331e-01 7.3333335e-01 0.0000000e+00 
7.3333335e-01 8.3333331e-01 0.0000000e+00 
6.9999999e-01 8.9999998e-01 0.0000000e+00 
8.9999998e-01 6.9999999e-01 0.0000000e+00 
6.9999999e-01 8.6666667e-01 0.0000000e+00 
8.6666667e-01 6.9999999e-01 0.0000000e+00 
7.6666665e-01 7.6666665e-01 0.0000000e+00 
7.3333335e-01 8.0000001e-01 0.0000000e+00 
6.6666669e-01 1.0000000e+00 0.0000000e+00 
1.0000000e+00 6.6666669e-01 0.0000000e+00 
8.0000001e-01 7.3333335e-01 0.0000000e+00 
6.6666669e-01 9.6666664e-01 0.0000000e+00 
9.6666664e-01 6.6666669e-01 0.0000000e+00 
6.6666669e-01 9.3333334e-01 0.0000000e+00 
9.3333334e-01 6.6666669e-01 0.0000000e+00 
8.3333331e-01 6.9999999e-01 0.0000000e+00 
6.9999999e-01 8.3333331e-01 0.0000000e+00 
6.6666669e-01 8.9999998e-01 0.0000000e+00 
8.9999998e-01 6.6666669e-01 0.0000000e+00 
7.6666665e-01 7.3333335e-01 0.0000000e+00 
7.3333335e-01 7.6666665e-01 0.0000000e+00 
8.6666667e-01 6.6666669e-01 0.0000000e+00 
6.6666669e-01 8.6666667e-01 0.0000000e+00 
8.0000001e-01 6.9999999e-01 0.0000000e+00 
6.9999999e-01 8.0000001e-01 0.0000000e+00 
1.0000000e+00 6.3333333e-01 0.0000000e+00 
6.3333333e-01 1.0000000e+00 0.0000000e+00 
9.6666664e-01 6.3333333e-01 0.0000000e+00 
6.3333333e-01 9.6666664e-01 0.0000000e+00 
9.3333334e-01 6.3333333e-01 0.0000000e+00 
6.3333333e-01 9.3333334e-01 0.0000000e+00 
6.6666669e-01 8.3333331e-01 0.0000000e+00 
8.3333331e-01 6.6666669e-01 0.0000000e+00 
7.3333335e-01 7.3333335e-01 0.0000000e+00 
7.6666665e-01 6.9999999e-01 0.0000000e+00 
6.9999999e-01 7.6666665e-01 0.0000000e+00 
6.3333333e-01 8.9999998e-01 0.0000000e+00 
8.9999998e-01 6.3333333e-01 0.0000000e+00 
6.6666669e-01 8.0000001e-01 0.0000000e+00 
8.0000001e-01 6.6666669e-01 0.0000000e+00 
8.6666667e-01 6.3333333e-01 0.0000000e+00 
6.3333333e-01 8.6666667e-01 0.0000000e+00 
6.0000002e-01 1.0000000e+00 0.0000000e+00 
1.0000000e+00 6.0000002e-01 0.0000000e+00 
6.9999999e-01 7.3333335e-01 0.0000000e+00 
7.3333335e-01 6.9999999e-01 0.0000000e+00 
6.0000002e-01 9.6666664e-01 0.0000000e+00 
9.6666664e-01 6.0000002e-01 0.0000000e+00 
6.3333333e-01 8.3333331e-01 0.0000000e+00 
8.3333331e-01 6.3333333e-01 0.0000000e+00 
6.0000002e-01 9.3333334e-01 0.0000000e+00 
9.3333334e-01 6.0000002e-01 0.0000000e+00 
6.6666669e-01 7.6666665e-01 0.0000000e+00 
7.6666665e-01 6.6666669e-01 0.0000000e+00 
8.9999998e-01 6.0000002e-01 0.0000000e+00 
6.0000002e-01 8.9999998e-01 0.0000000e+00 
6.3333333e-01 8.0000001e-01 0.0000000e+00 
8.0000001e-01 6.3333333e-01 0.0000000e+00 
6.0000002e-01 8.6666667e-01 0.0000000e+00 
8.6666667e-01 6.0000002e-01 0.0000000e+00 
6.9999999e-01 6.9999999e-01 0.0000000e+00 
7.3333335e-01 6.6666669e-01 0.0000000e+00 
6.6666669e-01 7.3333335e-01 0.0000000e+00 
1.0000000e+00 5.6666666e-01 0.0000000e+00 
5.6666666e-01 1.0000000e+00 0.0000000e+00 
6.0000002e-01 8.3333331e-01 0.0000000e+00 
8.3333331e-01 6.0000002e-01 0.0000000e+00 
7.6666665e-01 6.3333333e-01 0.0000000e+00 
6.3333333e-01 7.6666665e-01 0.0000000e+00 
5.6666666e-01 9.6666664e-01 0.0000000e+00 
9.6666664e-01 5.6666666e-01 0.0000000e+00 
5.6666666e-01 9.3333334e-01 0.0000000e+00 
9.3333334e-01 5.6666666e-01 0.0000000e+00 
5.6666666e-01 8.9999998e-01 0.0000000e+00 
8.9999998e-01 5.6666666e-01 0.0000000e+00 
6.0000002e-01 8.0000001e-01 0.0000000e+00 
8.0000001e-01 6.0000002e-01 0.0000000e+00 
6.9999999e-01 6.6666669e-01 0.0000000e+00 
6.6666669e-01 6.9999999e-01 0.0000000e+00 
6.3333333e-01 7.3333335e-01 0.0000000e+00 
7.3333335e-01 6.3333333e-01 0.0000000e+00 
5.6666666e-01 8.6666667e-01 0.0000000e+00 
8.6666667e-01 5.6666666e-01 0.0000000e+00 
7.6666665e-01 6.0000002e-01 0.0000000e+00 
6.0000002e-01 7.6666665e-01 0.0000000e+00 
5.6666666e-01 8.3333331e-01 0.0000000e+00 
8.3333331e-01 5.6666666e-01 0.0000000e+00 
5.3333336e-01 1.0000000e+00 0.0000000e+00 
1.0000000e+00 5.3333336e-01 0.0000000e+00 
9.6666664e-01 5.3333336e-01 0.0000000e+00 
5.3333336e-01 9.6666664e-01 0.0000000e+00 
9.3333334e-01 5.3333336e-01 0.0000000e+00 
5.3333336e-01 9.3333334e-01 0.0000000e+00 
6.6666669e-01 6.6666669e-01 0.0000000e+00 
6.3333333e-01 6.9999999e-01 0.0000000e+00 
6.9999999e-01 6.3333333e-01 0.0000000e+00 
5.3333336e-01 8.9999998e-01 0.0000000e+00 
8.9999998e-01 5.3333336e-01 0.0000000e+00 
5.6666666e-01 8.0000001e-01 0.0000000e+00 
8.0000001e-01 5.6666666e-01 0.0000000e+00 
7.3333335e-01 6.0000002e-01 0.0000000e+00 
6.0000002e-01 7.3333335e-01 0.0000000e+00 
8.6666667e-01 5.3333336e-01 0.0000000e+00 
5.3333336e-01 8.6666667e-01 0.0000000e+00 
5.6666666e-01 7.6666665e-01 0.0000000e+00 
7.6666665e-01 5.6666666e-01 0.0000000e+00 
5.3333336e-01 8.3333331e-01 0.0000000e+00 
8.3333331e-01 5.3333336e-01 0.0000000e+00 
6.3333333e-01 6.6666669e-01 0.0000000e+00 
6.6666669e-01 6.3333333e-01 0.0000000e+00 
1.0000000e+00 5.0000000e-01 0.0000000e+00 
5.0000000e-01 1.0000000e+00 0.0000000e+00 
6.0000002e-01 6.9999999e-01 0.0000000e+00 
6.9999999e-01 6.0000002e-01 0.0000000e+00 
5.0000000e-01 9.6666664e-01 0.0000000e+00 
9.6666664e-01 5.0000000e-01 0.0000000e+00 
5.0000000e-01 9.3333334e-01 0.0000000e+00 
9.3333334e-01 5.0000000e-01 0.0000000e+00 
5.3333336e-01 8.0000001e-01 0.0000000e+00 
8.0000001e-01 5.3333336e-01 0.0000000e+00 
7.3333335e-01 5.6666666e-01 0.0000000e+00 
5.6666666e-01 7.3333335e-01 0.0000000e+00 
8.9999998e-01 5.0000000e-01 0.0000000e+00 
5.0000000e-01 8.9999998e-01 0.0000000e+00 
8.6666667e-01 5.0000000e-01 0.0000000e+00 
5.0000000e-01 8.6666667e-01 0.0000000e+00 
6.3333333e-01 6.3333333e-01 0.0000000e+00 
6.6666669e-01 6.0000002e-01 0.0000000e+00 
6.0000002e-01 6.6666669e-01 0.0000000e+00 
7.6666665e-01 5.3333336e-01 0.0000000e+00 
5.3333336e-01 7.6666665e-01 0.0000000e+00 
5.0000000e-01 8.3333331e-01 0.0000000e+00 
8.3333331e-01 5.0000000e-01 0.0000000e+00 
5.6666666e-01 6.9999999e-01 0.0000000e+00 
6.9999999e-01 5.6666666e-01 0.0000000e+00 
4.6666667e-01 1.0000000e+00 0.0000000e+00 
1.0000000e+00 4.6666667e-01 0.0000000e+00 
4.6666667e-01 9.6666664e-01 0.0000000e+00 
9.6666664e-01 4.6666667e-01 0.0000000e+00 
9.3333334e-01 4.6666667e-01 0.0000000e+00 
7.3333335e-01 5.3333336e-01 0.0000000e+00 
4.6666667e-01 9.3333334e-01 0.0000000e+00 
5.3333336e-01 7.3333335e-01 0.0000000e+00 
8.0000001e-01 5.0000000e-01 0.0000000e+00 
5.0000000e-01 8.0000001e-01 0.0000000e+00 
4.6666667e-01 8.9999998e-01 0.0000000e+00 
8.9999998e-01 4.6666667e-01 0.0000000e+00 
6.0000002e-01 6.3333333e-01 0.0000000e+00 
6.3333333e-01 6.0000002e-01 0.0000000e+00 
5.6666666e-01 6.6666669e-01 0.0000000e+00 
6.6666669e-01 5.6666666e-01 0.0000000e+00 
[...]
POINT_DATA 961
FIELD FieldData 1
TEMPERATURE 1 961  float
-1.2246469e-16
-1.0452846e-01
0.0000000e+00
-9.9231809e-02
-2.0791169e-01
0.0000000e+00
-9.3171462e-02
-1.9754802e-01
-1.8564565e-01
0.0000000e+00
-3.0901700e-01
-2.9398200e-01
-8.6647525e-02
-1.7279926e-01
-2.7663299e-01
0.0000000e+00
-4.0673664e-01
-7.9898961e-02
-3.8756770e-01
-2.5787178e-01
-3.6533725e-01
-1.5950650e-01
-5.0000000e-01
0.0000000e+00
-2.3844232e-01
-3.4124336e-01
-4.7735354e-01
-7.3106162e-02
-1.4611702e-01
-4.5093536e-01
-3.1626096e-01
-2.1885160e-01
-4.2222646e-01
0.0000000e+00
-5.8778524e-01
-6.6359855e-02
-5.6239229e-01
-5.3256410e-01
-1.3280785e-01
-3.9242667e-01
-2.9104999e-01
-1.9935586e-01
-5.0005502e-01
0.0000000e+00
-6.6913062e-01
-5.9673388e-02
-6.4174581e-01
-3.6233369e-01
-2.6592475e-01
-4.6627998e-01
-6.0931826e-01
-1.1959805e-01
-1.7996027e-01
-5.7386571e-01
-4.3215492e-01
-3.3229280e-01
-7.4314481e-01
0.0000000e+00
-5.3700548e-01
-7.1449065e-01
-5.2993685e-02
-2.4084949e-01
-1.0637184e-01
-6.8025041e-01
-3.9803505e-01
-1.6046694e-01
-6.4269191e-01
-3.0219692e-01
-4.9975535e-01
-2.1551244e-01
-6.0361677e-01
0.0000000e+00
-8.0901700e-01
-4.6226304e-02
-7.7973026e-01
-4.6248725e-01
-3.6372739e-01
-9.2930742e-02
-7.4438351e-01
-2.7158493e-01
-5.6414461e-01
-7.0547348e-01
-1.4055201e-01
-6.6496652e-01
-1.8943287e-01
-4.2491010e-01
-5.2468473e-01
-8.6602539e-01
0.0000000e+00
-3.2857427e-01
-8.3661139e-01
-3.9263271e-02
-8.0073500e-01
-7.9051375e-02
-2.3977639e-01
-6.2409669e-01
-7.6109344e-01
-1.1986128e-01
-3.8609594e-01
-4.8483065e-01
-1.6210474e-01
-7.1980292e-01
-2.9160276e-01
-5.8329993e-01
0.0000000e+00
-9.1354543e-01
-3.2012336e-02
-8.8434619e-01
-6.4545088e-02
-8.4835601e-01
-6.7819619e-01
-2.0607196e-01
-4.4346181e-01
-3.4468371e-01
-5.4212999e-01
-8.0844128e-01
-9.8099865e-02
-6.3668799e-01
-2.5185135e-01
-1.3311423e-01
-7.6684666e-01
-9.5105654e-01
0.0000000e+00
-4.9957275e-01
-3.9874369e-01
-9.2223847e-01
-2.4420196e-02
-7.2495455e-01
-1.6993558e-01
-8.8637716e-01
-4.9301367e-02
-5.9485728e-01
-2.9925078e-01
-7.5094834e-02
-8.4647393e-01
-6.8315256e-01
-2.0876718e-01
-8.0487418e-01
-1.0222009e-01
-4.5402685e-01
-3.4756616e-01
-5.5170178e-01
0.0000000e+00
-9.7814763e-01
-7.6298845e-01
-1.3104400e-01
-2.4961840e-01
-6.4094412e-01
-9.4970912e-01
-1.6486635e-02
-9.1405153e-01
-3.3321247e-02
-8.7427837e-01
-5.0858423e-02
-7.2119313e-01
-1.6189349e-01
-3.9510107e-01
-5.0326979e-01
-5.9688592e-01
-2.9177243e-01
-8.3281511e-01
-6.9448173e-02
-1.9536211e-01
-6.7894709e-01
-7.9107928e-01
-8.9364424e-02
-9.9452192e-01
0.0000000e+00
-8.2722073e-03
-9.6632004e-01
-1.6734621e-02
-9.3079853e-01
-4.4559890e-01
-5.4677284e-01
-3.3327168e-01
-8.9113468e-01
-2.5606669e-02
-7.4931753e-01
-1.1069938e-01
-2.2976601e-01
-6.3398558e-01
-3.5139639e-02
-8.4982342e-01
-7.0657033e-01
-1.3319005e-01
-8.0831343e-01
-4.5598093e-02
-4.8880312e-01
-3.7408510e-01
0.0000000e+00
-1.0000000e+00
-5.8398759e-01
-2.6470944e-01
-9.7179645e-01
1.0546019e-04
-9.3624318e-01
2.1827509e-04
-7.6688170e-01
-5.7056032e-02
-1.5943411e-01
-6.6145492e-01
3.0445773e-04
-8.9655548e-01
2.3733416e-04
-8.5527194e-01
0.0000000e+00
0.0000000e+00
0.0000000e+00
-6.7154832e-02
-7.2429097e-01
-8.1395203e-01
-5.0311175e-04
-6.1152929e-01
-1.8789339e-01
-9.9452192e-01
0.0000000e+00
-9.6604764e-01
8.4825214e-03
1.7195063e-02
-8.3189756e-02
-9.3025678e-01
-6.7969894e-01
-3.9207917e-03
-7.7321994e-01
-8.9034653e-01
2.6358763e-02
0.0000000e+00
0.0000000e+00
0.0000000e+00
0.0000000e+00
-8.4882790e-01
3.6225628e-02
-1.8918365e-02
-7.3305500e-01
0.0000000e+00
0.0000000e+00
-8.0727208e-01
4.7240172e-02
0.0000000e+00
0.0000000e+00
-9.7814763e-01
-2.6866196e-02
-6.8966365e-01
1.6671993e-02
-9.4917947e-01
0.0000000e+00
0.0000000e+00
-7.6618356e-01
6.0906108e-02
-9.1299087e-01
3.3759687e-02
0.0000000e+00
0.0000000e+00
-8.7270361e-01
5.1674094e-02
-7.2523701e-01
-8.3075517e-01
7.0852518e-02
8.3685547e-02
0.0000000e+00
0.0000000e+00
0.0000000e+00
0.0000000e+00
-7.8862810e-01
9.1860585e-02
0.0000000e+00
0.0000000e+00
9.2657745e-02
-6.8184328e-01
0.0000000e+00
-9.5105654e-01
1.1539271e-01
-9.2148769e-01
2.4533780e-02
-7.4655032e-01
0.0000000e+00
0.0000000e+00
4.9601998e-02
-8.8486367e-01
7.5719096e-02
-8.4419131e-01
0.0000000e+00
0.0000000e+00
1.4210457e-01
-7.0332825e-01
0.0000000e+00
1.0338266e-01
-8.0183095e-01
0.0000000e+00
0.0000000e+00
0.0000000e+00
0.0000000e+00
1.3306746e-01
-7.5919920e-01
-6.5927613e-01
1.6636477e-01
0.0000000e+00
0.0000000e+00
1.6514245e-01
-7.1664333e-01
-9.1354543e-01
0.0000000e+00
3.2008506e-02
-8.8343400e-01
0.0000000e+00
0.0000000e+00
6.4598359e-02
-8.4650612e-01
0.0000000e+00
0.0000000e+00
0.0000000e+00
0.0000000e+00
9.8314092e-02
-8.0562377e-01
1.9948792e-01
-6.7347449e-01
-7.6305175e-01
1.3364998e-01
0.0000000e+00
0.0000000e+00
-7.2015834e-01
1.7100711e-01
-6.2858367e-01
2.3453708e-01
0.0000000e+00
0.0000000e+00
0.0000000e+00
0.0000000e+00
0.0000000e+00
2.1067597e-01
-6.7737091e-01
0.0000000e+00
0.0000000e+00
-8.6602539e-01
0.0000000e+00
3.9118104e-02
-8.3561575e-01
-7.9870367e-01
7.8796886e-02
-5.7910895e-01
2.6867574e-01
-7.5798076e-01
1.1954986e-01
2.5278452e-01
-6.3401884e-01
0.0000000e+00
0.0000000e+00
-7.1559530e-01
1.6181205e-01
0.0000000e+00
0.0000000e+00
0.0000000e+00
0.0000000e+00
2.9790694e-01
2.0588697e-01
-6.7288685e-01
-5.8866310e-01
0.0000000e+00
0.0000000e+00
0.0000000e+00
0.0000000e+00
-6.3029581e-01
2.5187913e-01
0.0000000e+00
-8.0901700e-01
4.5948096e-02
-7.7873570e-01
3.3946994e-01
-5.3997362e-01
-7.4234051e-01
0.0000000e+00
9.2378005e-02
0.0000000e+00
-5.8737206e-01
2.9961339e-01
1.3972200e-01
-7.0232958e-01
0.0000000e+00
0.0000000e+00
0.0000000e+00
-6.6071457e-01
1.8831737e-01
0.0000000e+00
0.0000000e+00
0.0000000e+00
0.0000000e+00
-5.4292542e-01
3.4845287e-01
-6.1878645e-01
2.3834741e-01
0.0000000e+00
0.0000000e+00
-5.7702857e-01
2.8976300e-01
0.0000000e+00
3.9620945e-01
0.0000000e+00
-4.9538124e-01
0.0000000e+00
0.0000000e+00
-7.4314481e-01
0.0000000e+00
0.0000000e+00
5.2621923e-02
-7.1357441e-01
0.0000000e+00
1.0559825e-01
-6.7835087e-01
-5.3511786e-01
3.4220621e-01
-6.3975668e-01
1.5924208e-01
0.0000000e+00
0.0000000e+00
-4.4210550e-01
4.4210863e-01
2.1376623e-01
-5.9964848e-01
0.0000000e+00
-4.9202982e-01
3.9484519e-01
0.0000000e+00
2.6922452e-01
-5.5924648e-01
0.0000000e+00
0.0000000e+00
0.0000000e+00
0.0000000e+00
-5.1906472e-01
0.0000000e+00
3.2544297e-01
0.0000000e+00
0.0000000e+00
-4.4633508e-01
4.4633520e-01
-6.6913062e-01
0.0000000e+00
-6.4096749e-01
5.9264608e-02
0.0000000e+00
0.0000000e+00
1.1872122e-01
-6.0768044e-01
3.8194120e-01
-4.7888026e-01
-5.7131565e-01
1.7853191e-01
4.9538332e-01
-3.9620867e-01
0.0000000e+00
0.0000000e+00
2.3876640e-01
0.0000000e+00
-5.3355491e-01
0.0000000e+00
4.3789318e-01
-4.3789780e-01
0.0000000e+00
0.0000000e+00
-4.9552900e-01
2.9934388e-01
0.0000000e+00
0.0000000e+00
-3.3946827e-01
5.3998345e-01
3.5997596e-01
-4.5775673e-01
4.9202949e-01
-3.9484799e-01
0.0000000e+00
0.0000000e+00
0.0000000e+00
-5.8778524e-01
6.5977834e-02
-5.6178826e-01
4.2010781e-01
0.0000000e+00
-4.2011604e-01
0.0000000e+00
0.0000000e+00
1.3195603e-01
-5.3125966e-01
5.4293066e-01
-3.4845388e-01
5.7912290e-01
-2.6867768e-01
-4.9799138e-01
1.9793037e-01
0.0000000e+00
0.0000000e+00
2.6381013e-01
-4.6347043e-01
4.7887358e-01
-3.8194770e-01
0.0000000e+00
0.0000000e+00
3.2937595e-01
-4.2871848e-01
-2.9790857e-01
5.8868343e-01
5.3511471e-01
0.0000000e+00
0.0000000e+00
-3.4221137e-01
3.9422867e-01
-3.9423782e-01
0.0000000e+00
0.0000000e+00
0.0000000e+00
0.0000000e+00
0.0000000e+00
0.0000000e+00
-5.0000000e-01
0.0000000e+00
4.5774689e-01
-3.5998407e-01
7.2799511e-02
-4.7693527e-01
-2.3454307e-01
6.2861341e-01
-2.9961729e-01
5.8737582e-01
1.4539763e-01
-4.4998845e-01
2.1760041e-01
-4.2068127e-01
0.0000000e+00
0.0000000e+00
-3.2544982e-01
5.1905555e-01
2.8915328e-01
-3.9028767e-01
0.0000000e+00
0.0000000e+00
0.0000000e+00
-3.5969988e-01
-2.5278828e-01
6.3403141e-01
3.5969192e-01
-1.6637303e-01
6.5933096e-01
0.0000000e+00
0.0000000e+00
-2.8976864e-01
5.7702190e-01
4.2870882e-01
-3.2938367e-01
0.0000000e+00
0.0000000e+00
-1.9949457e-01
6.7350459e-01
4.9551815e-01
-2.9935092e-01
-4.0673664e-01
0.0000000e+00
6.3029373e-01
-2.5188383e-01
-3.8732466e-01
7.9703964e-02
-9.2653722e-02
6.8228400e-01
-3.6473060e-01
1.5898882e-01
0.0000000e+00
0.0000000e+00
-3.4019214e-01
2.3748185e-01
-2.6923063e-01
5.5923539e-01
0.0000000e+00
0.0000000e+00
3.1474820e-01
-3.1475386e-01
0.0000000e+00
0.0000000e+00
6.7737716e-01
-2.1068026e-01
-1.4211407e-01
7.0338404e-01
-2.8915933e-01
3.9028016e-01
6.1877644e-01
-2.3835252e-01
6.8899155e-01
2.6864871e-02
4.6346113e-01
-2.6381609e-01
7.1665746e-01
-1.6514732e-01
0.0000000e+00
0.0000000e+00
0.0000000e+00
7.2566891e-01
6.7287940e-01
-8.3681464e-02
5.3354412e-01
-2.3877192e-01
-2.0589121e-01
0.0000000e+00
-3.0901700e-01
1.8789332e-01
8.6562343e-02
-2.9388583e-01
6.1155277e-01
-2.7631491e-01
1.7250304e-01
-2.5724757e-01
2.5724426e-01
6.7977428e-01
-2.1377106e-01
8.3189815e-02
5.9963685e-01
3.4018737e-01
-1.1539780e-01
-2.3748581e-01
7.4659234e-01
-1.7101069e-01
7.2015518e-01
7.3244667e-01
1.8916957e-02
-2.1760465e-01
4.2067489e-01
-1.8832143e-01
6.6070294e-01
3.7408483e-01
4.8879507e-01
5.8398581e-01
2.6470920e-01
-1.9793458e-01
4.9798337e-01
-1.3307066e-01
7.5920218e-01
7.6625293e-01
-6.0906548e-02
1.5943408e-01
6.6149318e-01
-1.6181536e-01
7.1558475e-01
5.7130617e-01
-1.7853583e-01
-2.0791169e-01
0.0000000e+00
7.2434217e-01
9.3183704e-02
-1.9755687e-01
6.7154922e-02
1.8553813e-01
-1.8553963e-01
-1.7250511e-01
-1.5924552e-01
6.3974607e-01
2.7631253e-01
-9.1863237e-02
7.8863347e-01
7.6304299e-01
-1.3365263e-01
-1.5899128e-01
4.4559816e-01
3.6472714e-01
7.7307802e-01
3.9202110e-03
5.4676443e-01
3.3327150e-01
6.3399470e-01
2.2976573e-01
-1.4540029e-01
4.4998384e-01
-1.3972488e-01
7.0231849e-01
7.0660818e-01
1.3318990e-01
5.3125381e-01
-1.3195866e-01
8.0182481e-01
-1.0338476e-01
8.0727959e-01
-4.7241263e-02
7.5796992e-01
-1.1955217e-01
7.6685745e-01
5.7055712e-02
-1.1872368e-01
6.0767341e-01
0.0000000e+00
-1.0452846e-01
5.0326622e-01
3.9510202e-01
9.9279784e-02
-9.9280164e-02
5.9688413e-01
-9.3184419e-02
1.9755609e-01
2.9177290e-01
8.3075058e-01
-7.0854053e-02
-1.0560041e-01
6.7834288e-01
2.9388458e-01
-8.6563334e-02
8.1390983e-01
5.0249713e-04
8.0561370e-01
-9.8315880e-02
6.7896390e-01
1.9536227e-01
3.8732284e-01
-7.9705141e-02
1.1069927e-01
7.4931884e-01
7.4233198e-01
-9.2379801e-02
-7.2800778e-02
4.7693282e-01
8.4882057e-01
-3.6226459e-02
-7.5720429e-02
8.4418225e-01
-6.5979101e-02
5.6178516e-01
8.0829209e-01
4.5597799e-02
4.5402879e-01
5.5169779e-01
7.9869497e-01
3.4756708e-01
-7.8798309e-02
2.4961880e-01
-5.9265785e-02
6.4096379e-01
6.4095008e-01
8.7269551e-01
-5.1675014e-02
1.6189355e-01
-0.0000000e+00
1.2246469e-16
7.2120053e-01
0.0000000e+00
1.0452846e-01
-2.3778717e-04
8.5525328e-01
2.0791169e-01
0.0000000e+00
-5.2622952e-02
7.1357012e-01
-6.4599432e-02
8.4649771e-01
0.0000000e+00
3.0901700e-01
8.9364313e-02
7.9107672e-01
0.0000000e+00
4.0673664e-01
7.7873105e-01
-4.5948945e-02
5.0000000e-01
0.0000000e+00
-2.6359307e-02
8.9033824e-01
4.9957329e-01
3.9874491e-01
-4.9602762e-02
8.8485587e-01
5.9485930e-01
2.9925150e-01
8.4981304e-01
3.5139415e-02
0.0000000e+00
5.8778524e-01
6.8315649e-01
2.0876744e-01
-3.9118767e-02
8.3561099e-01
7.6298964e-01
0.0000000e+00
1.3104405e-01
6.6913062e-01
-3.3760190e-02
9.1298378e-01
-3.0475401e-04
8.9654624e-01
-3.2008994e-02
8.8342935e-01
7.4314481e-01
0.0000000e+00
6.9448113e-02
8.3281147e-01
4.4346318e-01
5.4213208e-01
3.4468481e-01
6.3669103e-01
2.5185189e-01
9.3025035e-01
-1.7195357e-02
0.0000000e+00
8.0901700e-01
8.9112860e-01
9.2148334e-01
-2.4534121e-02
2.5606539e-02
1.6993582e-01
7.2495639e-01
1.0222017e-01
8.0487305e-01
8.6602539e-01
0.0000000e+00
9.3623763e-01
-2.1842352e-04
9.4917548e-01
-1.6672211e-02
3.8609737e-01
4.8483282e-01
2.9160357e-01
5.8330297e-01
5.0858416e-02
8.7427533e-01
0.0000000e+00
9.1354543e-01
6.7819953e-01
2.0607239e-01
-8.4826443e-03
9.6604425e-01
7.6684862e-01
1.3311444e-01
9.3079489e-01
1.6734572e-02
9.5105654e-01
0.0000000e+00
7.5094923e-02
8.4647399e-01
4.2491192e-01
5.2468741e-01
3.2857537e-01
9.7179383e-01
-1.0551608e-04
6.2409979e-01
2.3977703e-01
0.0000000e+00
9.7814763e-01
3.3321265e-02
9.1405004e-01
1.6210507e-01
7.1980584e-01
8.0844325e-01
9.8100029e-02
0.0000000e+00
9.9452192e-01
9.6631837e-01
8.2721962e-03
4.6248928e-01
3.6372879e-01
8.8637751e-01
4.9301438e-02
2.7158579e-01
5.6414711e-01
6.6496909e-01
1.8943334e-01
0.0000000e+00
1.0000000e+00
1.1986153e-01
7.6109552e-01
1.6486656e-02
9.4970852e-01
8.4835714e-01
6.4545199e-02
3.9803660e-01
3.0219793e-01
4.9975741e-01
9.9452192e-01
0.0000000e+00
6.0361910e-01
2.1551304e-01
2.4420237e-02
9.2223859e-01
7.0547557e-01
1.4055234e-01
8.0073637e-01
7.9051539e-02
0.0000000e+00
9.7814763e-01
4.3215650e-01
3.3229393e-01
8.8434672e-01
3.2012396e-02
5.3700739e-01
2.4085021e-01
1.6046734e-01
6.4269388e-01
9.5105654e-01
0.0000000e+00
7.4438506e-01
9.2930950e-02
3.9263353e-02
8.3661216e-01
3.6233482e-01
2.6592553e-01
4.6628141e-01
5.7386726e-01
1.7996074e-01
0.0000000e+00
9.1354543e-01
1.0637210e-01
6.8025178e-01
4.6226408e-02
7.7973109e-01
8.6602539e-01
0.0000000e+00
2.9105076e-01
3.9242768e-01
5.0005621e-01
1.9935638e-01
1.1959835e-01
6.0931933e-01
7.1449137e-01
5.2993808e-02
8.0901700e-01
0.0000000e+00
3.1626168e-01
4.2222732e-01
2.1885212e-01
1.3280816e-01
5.3256494e-01
5.9673525e-02
6.4174634e-01
7.4314481e-01
0.0000000e+00
3.4124395e-01
2.3844278e-01
1.4611733e-01
4.5093596e-01
6.6360004e-02
5.6239271e-01
6.6913062e-01
0.0000000e+00
2.5787216e-01
3.6533767e-01
1.5950678e-01
4.7735384e-01
7.3106304e-02
5.8778524e-01
0.0000000e+00
2.7663326e-01
1.7279950e-01
7.9899095e-02
3.8756791e-01
5.0000000e-01
0.0000000e+00
1.8564582e-01
8.6647637e-02
2.9398215e-01
4.0673664e-01
0.0000000e+00
1.9754811e-01
9.3171544e-02
0.0000000e+00
3.0901700e-01
9.9231854e-02
0.0000000e+00
2.0791169e-01
0.0000000e+00
1.0452846e-01
0.0000000e+00
CELL_DATA 1800
FIELD FieldData 0
