# vtk DataFile Version 4.0
vtk output
ASCII
DATASET UNSTRUCTURED_GRID
POINTS 961 float
1.0000000e+00 1.0000000e+00 0.0000000e+00 
9.6666664e-01 1.0000000e+00 0.0000000e+00 
1.0000000e+00 9.6666664e-01 0.0000000e+00 
9.6666664e-01 9.6666664e-01 0.0000000e+00 
9.3333334e-01 1.0000000e+00 0.0000000e+00 
1.0000000e+00 9.3333334e-01 0.0000000e+00 
9.6666664e-01 9.3333334e-01 0.0000000e+00 
9.3333334e-01 9.6666664e-01 0.0000000e+00 
9.3333334e-01 9.3333334e-01 0.0000000e+00 
1.0000000e+00 8.9999998e-01 0.0000000e+00 
8.9999998e-01 1.0000000e+00 0.0000000e+00 
8.9999998e-01 9.6666664e-01 0.0000000e+00 
9.6666664e-01 8.9999998e-01 0.0000000e+00 
9.3333334e-01 8.9999998e-01 0.0000000e+00 
8.9999998e-01 9.3333334e-01 0.0000000e+00 
1.0000000e+00 8.6666667e-01 0.0000000e+00 
8.6666667e-01 1.0000000e+00 0.0000000e+00 
9.6666664e-01 8.6666667e-01 0.0000000e+00 
8.6666667e-01 9.6666664e-01 0.0000000e+00 
8.9999998e-01 8.9999998e-01 0.0000000e+00 
8.6666667e-01 9.3333334e-01 0.0000000e+00 
9.3333334e-01 8.6666667e-01 0.0000000e+00 
8.3333331e-01 1.0000000e+00 0.0000000e+00 
1.0000000e+00 8.3333331e-01 0.0000000e+00 
8.9999998e-01 8.6666667e-01 0.0000000e+00 
8.6666667e-01 8.9999998e-01 0.0000000e+00 
8.3333331e-01 9.6666664e-01 0.0000000e+00 
9.6666664e-01 8.3333331e-01 0.0000000e+00 
9.3333334e-01 8.3333331e-01 0.0000000e+00 
8.3333331e-01 9.3333334e-01 0.0000000e+00 
8.6666667e-01 8.6666667e-01 0.0000000e+00 
8.9999998e-01 8.3333331e-01 0.0000000e+00 
8.3333331e-01 8.9999998e-01 0.0000000e+00 
1.0000000e+00 8.0000001e-01 0.0000000e+00 
8.0000001e-01 1.0000000e+00 0.0000000e+00 
9.6666664e-01 8.0000001e-01 0.0000000e+00 
8.0000001e-01 9.6666664e-01 0.0000000e+00 
8.0000001e-01 9.3333334e-01 0.0000000e+00 
9.3333334e-01 8.0000001e-01 0.0000000e+00 
8.3333331e-01 8.6666667e-01 0.0000000e+00 
8.6666667e-01 8.3333331e-01 0.0000000e+00 
8.9999998e-01 8.0000001e-01 0.0000000e+00 
8.0000001e-01 8.9999998e-01 0.0000000e+00 
1.0000000e+00 7.6666665e-01 0.0000000e+00 
7.6666665e-01 1.0000000e+00 0.0000000e+00 
9.6666664e-01 7.6666665e-01 0.0000000e+00 
7.6666665e-01 9.6666664e-01 0.0000000e+00 
8.3333331e-01 8.3333331e-01 0.0000000e+00 
8.6666667e-01 8.0000001e-01 0.0000000e+00 
8.0000001e-01 8.6666667e-01 0.0000000e+00 
7.6666665e-01 9.3333334e-01 0.0000000e+00 
9.3333334e-01 7.6666665e-01 0.0000000e+00 
8.9999998e-01 7.6666665e-01 0.0000000e+00 
7.6666665e-01 8.9999998e-01 0.0000000e+00 
8.0000001e-01 8.3333331e-01 0.0000000e+00 
8.3333331e-01 8.0000001e-01 0.0000000e+00 
7.3333335e-01 1.0000000e+00 0.0000000e+00 
1.0000000e+00 7.3333335e-01 0.0000000e+00 
7.6666665e-01 8.6666667e-01 0.0000000e+00 
7.3333335e-01 9.6666664e-01 0.0000000e+00 
9.6666664e-01 7.3333335e-01 0.0000000e+00 
8.6666667e-01 7.6666665e-01 0.0000000e+00 
9.3333334e-01 7.3333335e-01 0.0000000e+00 
7.3333335e-01 9.3333334e-01 0.0000000e+00 
8.0000001e-01 8.0000001e-01 0.0000000e+00 
8.9999998e-01 7.3333335e-01 0.0000000e+00 
7.3333335e-01 8.9999998e-01 0.0000000e+00 
8.3333331e-01 7.6666665e-01 0.0000000e+00 
7.6666665e-01 8.3333331e-01 0.0000000e+00 
8.6666667e-01 7.3333335e-01 0.0000000e+00 
7.3333335e-01 8.6666667e-01 0.0000000e+00 
1.0000000e+00 6.9999999e-01 0.0000000e+00 
6.9999999e-01 1.0000000e+00 0.0000000e+00 
9.6666664e-01 6.9999999e-01 0.0000000e+00 
6.9999999e-01 9.6666664e-01 0.0000000e+00 
7.6666665e-01 8.0000001e-01 0.0000000e+00 
8.0000001e-01 7.6666665e-01 0.0000000e+00 
9.3333334e-01 6.9999999e-01 0.0000000e+00 
6.9999999e-01 9.3333334e-01 0.0000000e+00 
8.3333331e-01 7.3333335e-01 0.0000000e+00 
7.3333335e-01 8.3333331e-01 0.0000000e+00 
6.9999999e-01 8.9999998e-01 0.0000000e+00 
8.9999998e-01 6.9999999e-01 0.0000000e+00 
6.9999999e-01 8.6666667e-01 0.0000000e+00 
8.6666667e-01 6.9999999e-01 0.0000000e+00 
7.6666665e-01 7.6666665e-01 0.0000000e+00 
7.3333335e-01 8.0000001e-01 0.0000000e+00 
6.6666669e-01 1.0000000e+00 0.0000000e+00 
1.0000000e+00 6.6666669e-01 0.0000000e+00 
8.0000001e-01 7.3333335e-01 0.0000000e+00 
6.6666669e-01 9.6666664e-01 0.0000000e+00 
9.6666664e-01 6.6666669e-01 0.0000000e+00 
6.6666669e-01 9.3333334e-01 0.0000000e+00 
9.3333334e-01 6.6666669e-01 0.0000000e+00 
8.3333331e-01 6.9999999e-01 0.0000000e+00 
6.9999999e-01 8.3333331e-01 0.0000000e+00 
6.6666669e-01 8.9999998e-01 0.0000000e+00 
8.9999998e-01 6.6666669e-01 0.0000000e+00 
7.6666665e-01 7.3333335e-01 0.0000000e+00 
7.3333335e-01 7.6666665e-01 0.0000000e+00 
8.6666667e-01 6.6666669e-01 0.0000000e+00 
6.6666669e-01 8.6666667e-01 0.0000000e+00 
8.0000001e-01 6.9999999e-01 0.0000000e+00 
6.9999999e-01 8.0000001e-01 0.0000000e+00 
1.0000000e+00 6.3333333e-01 0.0000000e+00 
6.3333333e-01 1.0000000e+00 0.0000000e+00 
9.6666664e-01 6.3333333e-01 0.0000000e+00 
6.3333333e-01 9.6666664e-01 0.0000000e+00 
9.3333334e-01 6.3333333e-01 0.0000000e+00 
6.3333333e-01 9.3333334e-01 0.0000000e+00 
6.6666669e-01 8.3333331e-01 0.0000000e+00 
8.3333331e-01 6.6666669e-01 0.0000000e+00 
7.3333335e-01 7.3333335e-01 0.0000000e+00 
7.6666665e-01 6.9999999e-01 0.0000000e+00 
6.9999999e-01 7.6666665e-01 0.0000000e+00 
6.3333333e-01 8.9999998e-01 0.0000000e+00 
8.9999998e-01 6.3333333e-01 0.0000000e+00 
6.6666669e-01 8.0000001e-01 0.0000000e+00 
8.0000001e-01 6.6666669e-01 0.0000000e+00 
8.6666667e-01 6.3333333e-01 0.0000000e+00 
6.3333333e-01 8.6666667e-01 0.0000000e+00 
6.0000002e-01 1.0000000e+00 0.0000000e+00 
1.0000000e+00 6.0000002e-01 0.0000000e+00 
6.9999999e-01 7.3333335e-01 0.0000000e+00 
7.3333335e-01 6.9999999e-01 0.0000000e+00 
6.0000002e-01 9.6666664e-01 0.0000000e+00 
9.6666664e-01 6.0000002e-01 0.0000000e+00 
6.3333333e-01 8.3333331e-01 0.0000000e+00 
8.3333331e-01 6.3333333e-01 0.0000000e+00 
6.0000002e-01 9.3333334e-01 0.0000000e+00 
9.3333334e-01 6.0000002e-01 0.0000000e+00 
6.6666669e-01 7.6666665e-01 0.0000000e+00 
7.6666665e-01 6.6666669e-01 0.0000000e+00 
8.9999998e-01 6.0000002e-01 0.0000000e+00 
6.0000002e-01 8.9999998e-01 0.0000000e+00 
6.3333333e-01 8.0000001e-01 0.0000000e+00 
8.0000001e-01 6.3333333e-01 0.0000000e+00 
6.0000002e-01 8.6666667e-01 0.0000000e+00 
8.6666667e-01 6.0000002e-01 0.0000000e+00 
6.9999999e-01 6.9999999e-01 0.0000000e+00 
7.3333335e-01 6.6666669e-01 0.0000000e+00 
6.6666669e-01 7.3333335e-01 0.0000000e+00 
1.0000000e+00 5.6666666e-01 0.0000000e+00 
5.6666666e-01 1.0000000e+00 0.0000000e+00 
6.0000002e-01 8.3333331e-01 0.0000000e+00 
8.3333331e-01 6.0000002e-01 0.0000000e+00 
7.6666665e-01 6.3333333e-01 0.0000000e+00 
6.3333333e-01 7.6666665e-01 0.0000000e+00 
5.6666666e-01 9.6666664e-01 0.0000000e+00 
9.6666664e-01 5.6666666e-01 0.0000000e+00 
5.6666666e-01 9.3333334e-01 0.0000000e+00 
9.3333334e-01 5.6666666e-01 0.0000000e+00 
5.6666666e-01 8.9999998e-01 0.0000000e+00 
8.9999998e-01 5.6666666e-01 0.0000000e+00 
6.0000002e-01 8.0000001e-01 0.0000000e+00 
8.0000001e-01 6.0000002e-01 0.0000000e+00 
6.9999999e-01 6.6666669e-01 0.0000000e+00 
6.6666669e-01 6.9999999e-01 0.0000000e+00 
6.3333333e-01 7.3333335e-01 0.0000000e+00 
7.3333335e-01 6.3333333e-01 0.0000000e+00 
5.6666666e-01 8.6666667e-01 0.0000000e+00 
8.6666667e-01 5.6666666e-01 0.0000000e+00 
7.6666665e-01 6.0000002e-01 0.0000000e+00 
6.0000002e-01 7.6666665e-01 0.0000000e+00 
5.6666666e-01 8.3333331e-01 0.0000000e+00 
8.3333331e-01 5.6666666e-01 0.0000000e+00 
5.3333336e-01 1.0000000e+00 0.0000000e+00 
1.0000000e+00 5.3333336e-01 0.0000000e+00 
9.6666664e-01 5.3333336e-01 0.0000000e+00 
5.3333336e-01 9.6666664e-01 0.0000000e+00 
9.3333334e-01 5.3333336e-01 0.0000000e+00 
5.3333336e-01 9.3333334e-01 0.0000000e+00 
6.6666669e-01 6.6666669e-01 0.0000000e+00 
6.3333333e-01 6.9999999e-01 0.0000000e+00 
6.9999999e-01 6.3333333e-01 0.0000000e+00 
5.3333336e-01 8.9999998e-01 0.0000000e+00 
8.9999998e-01 5.3333336e-01 0.0000000e+00 
5.6666666e-01 8.0000001e-01 0.0000000e+00 
8.0000001e-01 5.6666666e-01 0.0000000e+00 
7.3333335e-01 6.0000002e-01 0.0000000e+00 
6.0000002e-01 7.3333335e-01 0.0000000e+00 
8.6666667e-01 5.3333336e-01 0.0000000e+00 
5.3333336e-01 8.6666667e-01 0.0000000e+00 
5.6666666e-01 7.6666665e-01 0.0000000e+00 
7.6666665e-01 5.6666666e-01 0.0000000e+00 
5.3333336e-01 8.3333331e-01 0.0000000e+00 
8.3333331e-01 5.3333336e-01 0.0000000e+00 
6.3333333e-01 6.6666669e-01 0.0000000e+00 
6.6666669e-01 6.3333333e-01 0.0000000e+00 
1.0000000e+00 5.0000000e-01 0.0000000e+00 
5.0000000e-01 1.0000000e+00 0.0000000e+00 
6.0000002e-01 6.9999999e-01 0.0000000e+00 
6.9999999e-01 6.0000002e-01 0.0000000e+00 
5.0000000e-01 9.6666664e-01 0.0000000e+00 
9.6666664e-01 5.0000000e-01 0.0000000e+00 
5.0000000e-01 9.3333334e-01 0.0000000e+00 
9.3333334e-01 5.0000000e-01 0.0000000e+00 
5.3333336e-01 8.0000001e-01 0.0000000e+00 
8.0000001e-01 5.3333336e-01 0.0000000e+00 
7.3333335e-01 5.6666666e-01 0.0000000e+00 
5.6666666e-01 7.3333335e-01 0.0000000e+00 
8.9999998e-01 5.0000000e-01 0.0000000e+00 
5.0000000e-01 8.9999998e-01 0.0000000e+00 
8.6666667e-01 5.0000000e-01 0.0000000e+00 
5.0000000e-01 8.6666667e-01 0.0000000e+00 
6.3333333e-01 6.3333333e-01 0.0000000e+00 
6.6666669e-01 6.0000002e-01 0.0000000e+00 
6.0000002e-01 6.6666669e-01 0.0000000e+00 
7.6666665e-01 5.3333336e-01 0.0000000e+00 
5.3333336e-01 7.6666665e-01 0.0000000e+00 
5.0000000e-01 8.3333331e-01 0.0000000e+00 
8.3333331e-01 5.0000000e-01 0.0000000e+00 
5.6666666e-01 6.9999999e-01 0.0000000e+00 
6.9999999e-01 5.6666666e-01 0.0000000e+00 
4.6666667e-01 1.0000000e+00 0.0000000e+00 
1.0000000e+00 4.6666667e-01 0.0000000e+00 
4.6666667e-01 9.6666664e-01 0.0000000e+00 
9.6666664e-01 4.6666667e-01 0.0000000e+00 
9.3333334e-01 4.6666667e-01 0.0000000e+00 
7.3333335e-01 5.3333336e-01 0.0000000e+00 
4.6666667e-01 9.3333334e-01 0.0000000e+00 
5.3333336e-01 7.3333335e-01 0.0000000e+00 
8.0000001e-01 5.0000000e-01 0.0000000e+00 
5.0000000e-01 8.0000001e-01 0.0000000e+00 
4.6666667e-01 8.9999998e-01 0.0000000e+00 
8.9999998e-01 4.6666667e-01 0.0000000e+00 
6.0000002e-01 6.3333333e-01 0.0000000e+00 
6.3333333e-01 6.0000002e-01 0.0000000e+00 
5.6666666e-01 6.6666669e-01 0.0000000e+00 
6.6666669e-01 5.6666666e-01 0.0000000e+00 
[...]
POINT_DATA 961
FIELD FieldData 1
TEMPERATURE 1 961  float
-1.2246469e-16
-1.0452846e-01
0.0000000e+00
-9.7016089e-02
-2.0791169e-01
0.0000000e+00
-8.8905923e-02
-1.9315968e-01
-1.7721134e-01
0.0000000e+00
-3.0901700e-01
-2.8750712e-01
-8.0643058e-02
-1.6092511e-01
-2.6419368e-01
0.0000000e+00
-4.0673664e-01
-7.2558016e-02
-3.7912676e-01
-2.4038877e-01
-3.4914547e-01
-1.4501382e-01
-5.0000000e-01
0.0000000e+00
-2.1716936e-01
-3.1855395e-01
-4.6711642e-01
-6.4904444e-02
-1.2995856e-01
-4.3134132e-01
-2.8877503e-01
-1.9522603e-01
-3.9487946e-01
0.0000000e+00
-5.8778524e-01
-5.7789572e-02
-5.5057532e-01
-5.1001078e-01
-1.1597067e-01
-3.5950312e-01
-2.6071116e-01
-1.7486787e-01
-4.6874371e-01
0.0000000e+00
-6.6913062e-01
-5.1204007e-02
-6.2860543e-01
-3.2630414e-01
-2.3473187e-01
-4.2888799e-01
-5.8432919e-01
-1.0301732e-01
-1.5600127e-01
-5.3939980e-01
-3.9169481e-01
-2.9566553e-01
-7.4314481e-01
0.0000000e+00
-4.9625751e-01
-7.0031005e-01
-4.5033056e-02
-2.1063317e-01
-9.0851605e-02
-6.5339774e-01
-3.5753903e-01
-1.3821135e-01
-6.0594046e-01
-2.6722756e-01
-4.5630243e-01
-1.8777832e-01
-5.6068760e-01
0.0000000e+00
-8.0901700e-01
-3.9095603e-02
-7.6479757e-01
-4.1991937e-01
-3.2587761e-01
-7.9093516e-02
-7.1624172e-01
-2.4006750e-01
-5.1920700e-01
-6.6729110e-01
-1.2088062e-01
-6.2099147e-01
-1.6525607e-01
-3.8632885e-01
-4.8190311e-01
-8.6602539e-01
0.0000000e+00
-2.9539815e-01
-8.2119524e-01
-3.3187222e-02
-7.7183080e-01
-6.7320623e-02
-2.1289344e-01
-5.7909679e-01
-7.2224659e-01
-1.0334054e-01
-3.5370362e-01
-4.4771412e-01
-1.4211062e-01
-6.7576867e-01
-2.6426083e-01
-5.4197514e-01
0.0000000e+00
-9.1354543e-01
-2.7124094e-02
-8.6867303e-01
-5.5155754e-02
-8.1912363e-01
-6.3428760e-01
-1.8438253e-01
-4.1449687e-01
-3.1951037e-01
-5.0844115e-01
-7.6953566e-01
-8.5004218e-02
-5.9803385e-01
-2.3064630e-01
-1.1752730e-01
-7.2347909e-01
-9.5105654e-01
0.0000000e+00
-4.7658473e-01
-3.7888756e-01
-9.0647459e-01
-2.0775389e-02
-6.8288398e-01
-1.5349132e-01
-8.5711962e-01
-4.2332657e-02
-5.6583965e-01
-2.8105181e-01
-6.5469459e-02
-8.0789566e-01
-6.4786315e-01
-1.9345459e-01
-7.6257479e-01
-9.0968952e-02
-4.4350141e-01
-3.3506086e-01
-5.3564054e-01
0.0000000e+00
-9.7814763e-01
-7.2309124e-01
-1.1953945e-01
-2.3777972e-01
-6.1713129e-01
-9.3395036e-01
-1.4087055e-02
-8.8492227e-01
-2.8750865e-02
-8.3617651e-01
-4.4606440e-02
-6.8950254e-01
-1.5179519e-01
-3.9032096e-01
-5.0045282e-01
-5.8779961e-01
-2.8598681e-01
-7.9165429e-01
-6.2278338e-02
-1.8856876e-01
-6.6029221e-01
-7.5328594e-01
-8.2282744e-02
-9.9452192e-01
0.0000000e+00
-7.0944345e-03
-9.5059437e-01
-1.4493253e-02
-9.0180963e-01
-4.5319062e-01
-5.5174482e-01
-3.3478096e-01
-8.5343266e-01
-2.2561487e-02
-7.2096688e-01
-1.0494842e-01
-2.2876014e-01
-6.3136399e-01
-3.1710982e-02
-8.0954069e-01
-6.9269603e-01
-1.3021055e-01
-7.7211213e-01
-4.2382278e-02
-5.0606900e-01
-3.8477534e-01
0.0000000e+00
-1.0000000e+00
-5.9693998e-01
-2.7047634e-01
-9.5608079e-01
8.5160995e-05
-9.0729749e-01
1.9744036e-04
-7.4110615e-01
-5.4873273e-02
-1.6058882e-01
-6.6389072e-01
2.9369132e-04
-8.5898983e-01
2.1400634e-04
-8.1531578e-01
0.0000000e+00
0.0000000e+00
0.0000000e+00
-6.6457503e-02
-7.1394056e-01
-7.7844095e-01
-7.1611803e-04
-6.3055408e-01
-1.9495757e-01
-9.9452192e-01
0.0000000e+00
-9.5029736e-01
7.2678607e-03
1.4925626e-02
-8.5094981e-02
-9.0120482e-01
-6.8655914e-01
-5.0130184e-03
-7.4888098e-01
-8.5254741e-01
2.3337046e-02
0.0000000e+00
0.0000000e+00
0.0000000e+00
0.0000000e+00
-8.0843973e-01
3.2919131e-02
-2.3799678e-02
-7.2562194e-01
0.0000000e+00
0.0000000e+00
-7.7113295e-01
4.4316340e-02
0.0000000e+00
0.0000000e+00
-9.7814763e-01
-3.3201538e-02
-7.0044124e-01
1.4238672e-02
-9.3336666e-01
0.0000000e+00
0.0000000e+00
-7.4111038e-01
5.9608903e-02
-8.8371462e-01
2.9174039e-02
0.0000000e+00
0.0000000e+00
-8.3434266e-01
4.5486994e-02
-7.1790105e-01
-7.8921485e-01
6.3909218e-02
8.7070771e-02
0.0000000e+00
0.0000000e+00
0.0000000e+00
0.0000000e+00
-7.5047290e-01
8.5323438e-02
0.0000000e+00
0.0000000e+00
9.8120287e-02
-6.9310814e-01
0.0000000e+00
-9.5105654e-01
1.1071889e-01
-9.0563935e-01
2.0848894e-02
-7.1801955e-01
0.0000000e+00
0.0000000e+00
4.2601481e-02
-8.5536569e-01
6.6133566e-02
-8.0515105e-01
0.0000000e+00
0.0000000e+00
1.4112385e-01
-6.8977559e-01
0.0000000e+00
9.2316642e-02
-7.5878537e-01
0.0000000e+00
0.0000000e+00
0.0000000e+00
0.0000000e+00
1.2202462e-01
-7.1831679e-01
-6.6350287e-01
1.7024542e-01
0.0000000e+00
0.0000000e+00
1.5593982e-01
-6.8379349e-01
-9.1354543e-01
0.0000000e+00
2.7064070e-02
-8.6765510e-01
0.0000000e+00
0.0000000e+00
5.5129606e-02
-8.1696039e-01
0.0000000e+00
0.0000000e+00
0.0000000e+00
0.0000000e+00
8.5156195e-02
-7.6607925e-01
1.9425909e-01
-6.5353465e-01
-7.1860206e-01
1.1806347e-01
0.0000000e+00
0.0000000e+00
-6.7648590e-01
1.5468556e-01
-6.2470788e-01
2.3547021e-01
0.0000000e+00
0.0000000e+00
0.0000000e+00
0.0000000e+00
0.0000000e+00
1.9573487e-01
-6.4003640e-01
0.0000000e+00
0.0000000e+00
-8.6602539e-01
0.0000000e+00
3.2965980e-02
-8.2009190e-01
-7.6946032e-01
6.6927716e-02
-5.9122884e-01
2.7718556e-01
-7.1840727e-01
1.0283116e-01
2.4167687e-01
-6.0751748e-01
0.0000000e+00
0.0000000e+00
-6.7029667e-01
1.4155763e-01
0.0000000e+00
0.0000000e+00
0.0000000e+00
0.0000000e+00
2.9354247e-01
1.8385129e-01
-6.2701571e-01
-5.7608801e-01
0.0000000e+00
0.0000000e+00
0.0000000e+00
0.0000000e+00
-5.8896488e-01
2.3024152e-01
0.0000000e+00
-8.0901700e-01
3.8727313e-02
-7.6371747e-01
3.4326854e-01
-5.4215968e-01
-7.1389169e-01
0.0000000e+00
7.8355655e-02
0.0000000e+00
-5.5488342e-01
2.8088558e-01
1.1973737e-01
-6.6344345e-01
0.0000000e+00
0.0000000e+00
0.0000000e+00
-6.1548114e-01
1.6364604e-01
0.0000000e+00
0.0000000e+00
0.0000000e+00
0.0000000e+00
-5.2231276e-01
3.3535671e-01
-5.7181716e-01
2.1069868e-01
0.0000000e+00
0.0000000e+00
-5.3293777e-01
2.6124579e-01
0.0000000e+00
3.9116135e-01
0.0000000e+00
-4.8803362e-01
0.0000000e+00
0.0000000e+00
-7.4314481e-01
0.0000000e+00
0.0000000e+00
4.4574391e-02
-6.9935107e-01
0.0000000e+00
8.9882158e-02
-6.5127474e-01
-4.9790627e-01
3.1525660e-01
-6.0242361e-01
1.3662244e-01
0.0000000e+00
0.0000000e+00
-4.4675261e-01
4.4676751e-01
1.8541171e-01
-5.5562580e-01
0.0000000e+00
-4.6458280e-01
3.7202421e-01
0.0000000e+00
2.3671125e-01
-5.1258969e-01
0.0000000e+00
0.0000000e+00
0.0000000e+00
0.0000000e+00
-4.7388259e-01
0.0000000e+00
2.9072064e-01
0.0000000e+00
0.0000000e+00
-4.3018213e-01
4.3017617e-01
-6.6913062e-01
0.0000000e+00
-6.2783736e-01
5.0730068e-02
0.0000000e+00
0.0000000e+00
1.0197706e-01
-5.8257979e-01
3.4726071e-01
-4.3879852e-01
-5.3645188e-01
1.5423864e-01
4.8804462e-01
-3.9116752e-01
0.0000000e+00
0.0000000e+00
2.0794064e-01
0.0000000e+00
-4.9197993e-01
0.0000000e+00
4.0566579e-01
-4.0568113e-01
0.0000000e+00
0.0000000e+00
-4.5073771e-01
2.6336774e-01
0.0000000e+00
0.0000000e+00
-3.4326681e-01
5.4219627e-01
3.2057539e-01
-4.1334018e-01
4.6457249e-01
-3.7203494e-01
0.0000000e+00
0.0000000e+00
0.0000000e+00
-5.8778524e-01
5.7384647e-02
-5.5003268e-01
3.7928122e-01
0.0000000e+00
-3.7929714e-01
0.0000000e+00
0.0000000e+00
1.1502904e-01
-5.0870746e-01
5.2231926e-01
-3.3536556e-01
5.9126246e-01
-2.7718312e-01
-4.6647742e-01
1.7321172e-01
0.0000000e+00
0.0000000e+00
2.3214194e-01
-4.2554742e-01
4.3877903e-01
-3.4727383e-01
0.0000000e+00
0.0000000e+00
2.9191366e-01
-3.8732922e-01
-2.9355046e-01
5.7613415e-01
4.9788675e-01
0.0000000e+00
0.0000000e+00
-3.1526679e-01
3.5243064e-01
-3.5244375e-01
0.0000000e+00
0.0000000e+00
0.0000000e+00
0.0000000e+00
0.0000000e+00
0.0000000e+00
-5.0000000e-01
0.0000000e+00
4.1332224e-01
-3.2058710e-01
6.4618424e-02
-4.6679968e-01
-2.3547485e-01
6.2475795e-01
-2.8089303e-01
5.5487388e-01
1.2923725e-01
-4.3048775e-01
1.9387974e-01
-3.9329800e-01
0.0000000e+00
0.0000000e+00
-2.9073024e-01
4.7386014e-01
2.5853592e-01
-3.5709685e-01
0.0000000e+00
0.0000000e+00
0.0000000e+00
-3.2310832e-01
-2.4168262e-01
6.0752499e-01
3.2309905e-01
-1.7025091e-01
6.6350287e-01
0.0000000e+00
0.0000000e+00
-2.6125306e-01
5.3291243e-01
3.8731572e-01
-2.9192260e-01
0.0000000e+00
0.0000000e+00
-1.9426356e-01
6.5356767e-01
4.5071924e-01
-2.6337567e-01
-4.0673664e-01
0.0000000e+00
5.8894128e-01
-2.3024668e-01
-3.7900782e-01
7.2433494e-02
-9.8122045e-02
6.9285792e-01
-3.4869176e-01
1.4458299e-01
0.0000000e+00
0.0000000e+00
-3.1758282e-01
2.1625277e-01
-2.3671766e-01
5.1256615e-01
0.0000000e+00
0.0000000e+00
2.8718957e-01
-2.8719532e-01
0.0000000e+00
0.0000000e+00
6.4002019e-01
-1.9573824e-01
-1.4113075e-01
6.8981558e-01
-2.5854194e-01
3.5708806e-01
5.7178950e-01
-2.1070336e-01
7.0071924e-01
3.3200618e-02
4.2553470e-01
-2.3214769e-01
6.8377972e-01
-1.5594190e-01
0.0000000e+00
0.0000000e+00
0.0000000e+00
7.1762830e-01
6.2698591e-01
-8.7073222e-02
4.9196252e-01
-2.0794564e-01
-1.8385439e-01
0.0000000e+00
-3.0901700e-01
1.9495809e-01
8.0648035e-02
-2.8753731e-01
6.3054955e-01
-2.6404852e-01
1.6077138e-01
-2.3990385e-01
2.3990078e-01
6.8649936e-01
-1.8541564e-01
8.5095316e-02
5.5560344e-01
3.1757790e-01
-1.1072075e-01
-2.1625634e-01
7.1801496e-01
-1.5468733e-01
6.7645794e-01
7.2579598e-01
2.3798427e-02
-1.9388343e-01
3.9329055e-01
-1.6364883e-01
6.1545432e-01
3.8477623e-01
5.0607407e-01
5.9695023e-01
2.7047655e-01
-1.7321520e-01
4.6646670e-01
-1.2202540e-01
7.1829057e-01
7.4100673e-01
-5.9609365e-02
1.6058891e-01
6.6386801e-01
-1.4155935e-01
6.7026687e-01
5.3643721e-01
-1.5424159e-01
-2.0791169e-01
0.0000000e+00
7.1386528e-01
8.9021705e-02
-1.9327894e-01
6.6457428e-02
1.7725784e-01
-1.7725912e-01
-1.6077311e-01
-1.3662471e-01
6.0240471e-01
2.6404628e-01
-8.5323721e-02
7.5044483e-01
7.1857131e-01
-1.1806432e-01
-1.4458500e-01
4.5319015e-01
3.4868816e-01
7.4891865e-01
5.0126119e-03
5.5175501e-01
3.3478096e-01
6.3136840e-01
2.2875994e-01
-1.2923932e-01
4.3048236e-01
-1.1973888e-01
6.6342062e-01
6.9266993e-01
1.3021056e-01
5.0869966e-01
-1.1503097e-01
7.5875682e-01
-9.2316896e-02
7.7110648e-01
-4.4316247e-02
7.1838146e-01
-1.0283200e-01
7.4109733e-01
5.4873221e-02
-1.0197866e-01
5.8256918e-01
0.0000000e+00
-1.0452846e-01
5.0045735e-01
3.9032078e-01
9.7130142e-02
-9.7130448e-02
5.8781308e-01
-8.9022279e-02
1.9327827e-01
2.8598657e-01
7.8918898e-01
-6.3909121e-02
-8.9883342e-02
6.5126109e-01
2.8753611e-01
-8.0648817e-02
7.7844894e-01
7.1622146e-04
7.6605219e-01
-8.5156523e-02
6.6029531e-01
1.8856847e-01
3.7900591e-01
-7.2434396e-02
1.0494860e-01
7.2095263e-01
7.1387511e-01
-7.8356400e-02
-6.4619347e-02
4.6679682e-01
8.0842102e-01
-3.2918874e-02
-6.6133566e-02
8.0512506e-01
-5.7385497e-02
5.5002862e-01
7.7211213e-01
4.2382453e-02
4.4350103e-01
5.3565228e-01
7.6944149e-01
3.3506072e-01
-6.6928074e-02
2.3777974e-01
-5.0730765e-02
6.2783182e-01
6.1714232e-01
8.3432066e-01
-4.5486826e-02
1.5179528e-01
-0.0000000e+00
1.2246469e-16
6.8951082e-01
0.0000000e+00
1.0452846e-01
-2.1377268e-04
8.1531250e-01
2.0791169e-01
0.0000000e+00
-4.4574894e-02
6.9934392e-01
-5.5129677e-02
8.1694055e-01
0.0000000e+00
3.0901700e-01
8.2282908e-02
7.5329679e-01
0.0000000e+00
4.0673664e-01
7.6370877e-01
-3.8727611e-02
5.0000000e-01
0.0000000e+00
-2.3336831e-02
8.5253257e-01
4.7658989e-01
3.7888762e-01
-4.2601384e-02
8.5534656e-01
5.6584918e-01
2.8105205e-01
8.0954766e-01
3.1711165e-02
0.0000000e+00
5.8778524e-01
6.4787149e-01
1.9345480e-01
-3.2966107e-02
8.2008201e-01
7.2310376e-01
0.0000000e+00
1.1953960e-01
6.6913062e-01
-2.9173866e-02
8.8369834e-01
-2.9350867e-04
8.5898483e-01
-2.7064066e-02
8.6764467e-01
7.4314481e-01
0.0000000e+00
6.2278464e-02
7.9166561e-01
4.1449893e-01
5.0844622e-01
3.1951109e-01
5.9804028e-01
2.3064667e-01
9.0119344e-01
-1.4925447e-02
0.0000000e+00
8.0901700e-01
8.5343528e-01
9.0562928e-01
-2.0848818e-02
2.2561619e-02
1.5349154e-01
6.8289101e-01
9.0969071e-02
7.6258206e-01
8.6602539e-01
0.0000000e+00
9.0729225e-01
-1.9729286e-04
9.3335801e-01
-1.4238567e-02
3.5370511e-01
4.4771695e-01
2.6426142e-01
5.4197973e-01
4.4606537e-02
8.3618128e-01
0.0000000e+00
9.1354543e-01
6.3429391e-01
1.8438289e-01
-7.2677596e-03
9.5029116e-01
7.2348511e-01
1.1752747e-01
9.0180922e-01
1.4493358e-02
9.5105654e-01
0.0000000e+00
6.5469541e-02
8.0790049e-01
3.8633072e-01
4.8190621e-01
2.9539910e-01
9.5607752e-01
-8.5080646e-05
5.7910126e-01
2.1289396e-01
0.0000000e+00
9.7814763e-01
2.8750934e-02
8.8492429e-01
1.4211085e-01
6.7577428e-01
7.6954097e-01
8.5004322e-02
0.0000000e+00
9.9452192e-01
9.5059353e-01
7.0944880e-03
4.1992137e-01
3.2587883e-01
8.5712290e-01
4.2332705e-02
2.4006821e-01
5.1920992e-01
6.2099504e-01
1.6525644e-01
0.0000000e+00
1.0000000e+00
1.0334070e-01
7.2225070e-01
1.4087086e-02
9.3395108e-01
8.1912690e-01
5.5155810e-02
3.5754040e-01
2.6722848e-01
4.5630437e-01
9.9452192e-01
0.0000000e+00
5.6069005e-01
1.8777883e-01
2.0775408e-02
9.0647602e-01
6.6729379e-01
1.2088086e-01
7.7183318e-01
6.7320719e-02
0.0000000e+00
9.7814763e-01
3.9169621e-01
2.9566652e-01
8.6867434e-01
2.7124114e-02
4.9625933e-01
2.1063380e-01
1.3821170e-01
6.0594249e-01
9.5105654e-01
0.0000000e+00
7.1624351e-01
7.9093665e-02
3.3187263e-02
8.2119632e-01
3.2630512e-01
2.3473255e-01
4.2888927e-01
5.3940129e-01
1.5600169e-01
0.0000000e+00
9.1354543e-01
9.0851814e-02
6.5339917e-01
3.9095670e-02
7.6479858e-01
8.6602539e-01
0.0000000e+00
2.6071185e-01
3.5950401e-01
4.6874475e-01
1.7486833e-01
1.0301758e-01
5.8433020e-01
7.0031077e-01
4.5033157e-02
8.0901700e-01
0.0000000e+00
2.8877565e-01
3.9488021e-01
1.9522651e-01
1.1597096e-01
5.1001149e-01
5.1204130e-02
6.2860596e-01
7.4314481e-01
0.0000000e+00
3.1855449e-01
2.1716978e-01
1.2995884e-01
4.3134186e-01
5.7789709e-02
5.5057567e-01
6.6913062e-01
0.0000000e+00
2.4038912e-01
3.4914586e-01
1.4501409e-01
4.6711671e-01
6.4904585e-02
5.8778524e-01
0.0000000e+00
2.6419395e-01
1.6092533e-01
7.2558142e-02
3.7912694e-01
5.0000000e-01
0.0000000e+00
1.7721149e-01
8.0643155e-02
2.8750724e-01
4.0673664e-01
0.0000000e+00
1.9315976e-01
8.8905998e-02
0.0000000e+00
3.0901700e-01
9.7016118e-02
0.0000000e+00
2.0791169e-01
0.0000000e+00
1.0452846e-01
0.0000000e+00
CELL_DATA 1800
FIELD FieldData 0
