# vtk DataFile Version 4.0
vtk output
ASCII
DATASET UNSTRUCTURED_GRID
POINTS 961 float
1.0000000e+00 1.0000000e+00 0.0000000e+00 
9.6666664e-01 1.0000000e+00 0.0000000e+00 
1.0000000e+00 9.6666664e-01 0.0000000e+00 
9.6666664e-01 9.6666664e-01 0.0000000e+00 
9.3333334e-01 1.0000000e+00 0.0000000e+00 
1.0000000e+00 9.3333334e-01 0.0000000e+00 
9.6666664e-01 9.3333334e-01 0.0000000e+00 
9.3333334e-01 9.6666664e-01 0.0000000e+00 
9.3333334e-01 9.3333334e-01 0.0000000e+00 
1.0000000e+00 8.9999998e-01 0.0000000e+00 
8.9999998e-01 1.0000000e+00 0.0000000e+00 
8.9999998e-01 9.6666664e-01 0.0000000e+00 
9.6666664e-01 8.9999998e-01 0.0000000e+00 
9.3333334e-01 8.9999998e-01 0.0000000e+00 
8.9999998e-01 9.3333334e-01 0.0000000e+00 
1.0000000e+00 8.6666667e-01 0.0000000e+00 
8.6666667e-01 1.0000000e+00 0.0000000e+00 
9.6666664e-01 8.6666667e-01 0.0000000e+00 
8.6666667e-01 9.6666664e-01 0.0000000e+00 
8.9999998e-01 8.9999998e-01 0.0000000e+00 
8.6666667e-01 9.3333334e-01 0.0000000e+00 
9.3333334e-01 8.6666667e-01 0.0000000e+00 
8.3333331e-01 1.0000000e+00 0.0000000e+00 
1.0000000e+00 8.3333331e-01 0.0000000e+00 
8.9999998e-01 8.6666667e-01 0.0000000e+00 
8.6666667e-01 8.9999998e-01 0.0000000e+00 
8.3333331e-01 9.6666664e-01 0.0000000e+00 
9.6666664e-01 8.3333331e-01 0.0000000e+00 
9.3333334e-01 8.3333331e-01 0.0000000e+00 
8.3333331e-01 9.3333334e-01 0.0000000e+00 
8.6666667e-01 8.6666667e-01 0.0000000e+00 
8.9999998e-01 8.3333331e-01 0.0000000e+00 
8.3333331e-01 8.9999998e-01 0.0000000e+00 
1.0000000e+00 8.0000001e-01 0.0000000e+00 
8.0000001e-01 1.0000000e+00 0.0000000e+00 
9.6666664e-01 8.0000001e-01 0.0000000e+00 
8.0000001e-01 9.6666664e-01 0.0000000e+00 
8.0000001e-01 9.3333334e-01 0.0000000e+00 
9.3333334e-01 8.0000001e-01 0.0000000e+00 
8.3333331e-01 8.6666667e-01 0.0000000e+00 
8.6666667e-01 8.3333331e-01 0.0000000e+00 
8.9999998e-01 8.0000001e-01 0.0000000e+00 
8.0000001e-01 8.9999998e-01 0.0000000e+00 
1.0000000e+00 7.6666665e-01 0.0000000e+00 
7.6666665e-01 1.0000000e+00 0.0000000e+00 
9.6666664e-01 7.6666665e-01 0.0000000e+00 
7.6666665e-01 9.6666664e-01 0.0000000e+00 
8.3333331e-01 8.3333331e-01 0.0000000e+00 
8.6666667e-01 8.0000001e-01 0.0000000e+00 
8.0000001e-01 8.6666667e-01 0.0000000e+00 
7.6666665e-01 9.3333334e-01 0.0000000e+00 
9.3333334e-01 7.6666665e-01 0.0000000e+00 
8.9999998e-01 7.6666665e-01 0.0000000e+00 
7.6666665e-01 8.9999998e-01 0.0000000e+00 
8.0000001e-01 8.3333331e-01 0.0000000e+00 
8.3333331e-01 8.0000001e-01 0.0000000e+00 
7.3333335e-01 1.0000000e+00 0.0000000e+00 
1.0000000e+00 7.3333335e-01 0.0000000e+00 
7.6666665e-01 8.6666667e-01 0.0000000e+00 
7.3333335e-01 9.6666664e-01 0.0000000e+00 
9.6666664e-01 7.3333335e-01 0.0000000e+00 
8.6666667e-01 7.6666665e-01 0.0000000e+00 
9.3333334e-01 7.3333335e-01 0.0000000e+00 
7.3333335e-01 9.3333334e-01 0.0000000e+00 
8.0000001e-01 8.0000001e-01 0.0000000e+00 
8.9999998e-01 7.3333335e-01 0.0000000e+00 
7.3333335e-01 8.9999998e-01 0.0000000e+00 
8.3333331e-01 7.6666665e-01 0.0000000e+00 
7.6666665e-01 8.3333331e-01 0.0000000e+00 
8.6666667e-01 7.3333335e-01 0.0000000e+00 
7.3333335e-01 8.6666667e-01 0.0000000e+00 
1.0000000e+00 6.9999999e-01 0.0000000e+00 
6.9999999e-01 1.0000000e+00 0.0000000e+00 
9.6666664e-01 6.9999999e-01 0.0000000e+00 
6.9999999e-01 9.6666664e-01 0.0000000e+00 
7.6666665e-01 8.0000001e-01 0.0000000e+00 
8.0000001e-01 7.6666665e-01 0.0000000e+00 
9.3333334e-01 6.9999999e-01 0.0000000e+00 
6.9999999e-01 9.3333334e-01 0.0000000e+00 
8.3333331e-01 7.3333335e-01 0.0000000e+00 
7.3333335e-01 8.3333331e-01 0.0000000e+00 
6.9999999e-01 8.9999998e-01 0.0000000e+00 
8.9999998e-01 6.9999999e-01 0.0000000e+00 
6.9999999e-01 8.6666667e-01 0.0000000e+00 
8.6666667e-01 6.9999999e-01 0.0000000e+00 
7.6666665e-01 7.6666665e-01 0.0000000e+00 
7.3333335e-01 8.0000001e-01 0.0000000e+00 
6.6666669e-01 1.0000000e+00 0.0000000e+00 
1.0000000e+00 6.6666669e-01 0.0000000e+00 
8.0000001e-01 7.3333335e-01 0.0000000e+00 
6.6666669e-01 9.6666664e-01 0.0000000e+00 
9.6666664e-01 6.6666669e-01 0.0000000e+00 
6.6666669e-01 9.3333334e-01 0.0000000e+00 
9.3333334e-01 6.6666669e-01 0.0000000e+00 
8.3333331e-01 6.9999999e-01 0.0000000e+00 
6.9999999e-01 8.3333331e-01 0.0000000e+00 
6.6666669e-01 8.9999998e-01 0.0000000e+00 
8.9999998e-01 6.6666669e-01 0.0000000e+00 
7.6666665e-01 7.3333335e-01 0.0000000e+00 
7.3333335e-01 7.6666665e-01 0.0000000e+00 
8.6666667e-01 6.6666669e-01 0.0000000e+00 
6.6666669e-01 8.6666667e-01 0.0000000e+00 
8.0000001e-01 6.9999999e-01 0.0000000e+00 
6.9999999e-01 8.0000001e-01 0.0000000e+00 
1.0000000e+00 6.3333333e-01 0.0000000e+00 
6.3333333e-01 1.0000000e+00 0.0000000e+00 
9.6666664e-01 6.3333333e-01 0.0000000e+00 
6.3333333e-01 9.6666664e-01 0.0000000e+00 
9.3333334e-01 6.3333333e-01 0.0000000e+00 
6.3333333e-01 9.3333334e-01 0.0000000e+00 
6.6666669e-01 8.3333331e-01 0.0000000e+00 
8.3333331e-01 6.6666669e-01 0.0000000e+00 
7.3333335e-01 7.3333335e-01 0.0000000e+00 
7.6666665e-01 6.9999999e-01 0.0000000e+00 
6.9999999e-01 7.6666665e-01 0.0000000e+00 
6.3333333e-01 8.9999998e-01 0.0000000e+00 
8.9999998e-01 6.3333333e-01 0.0000000e+00 
6.6666669e-01 8.0000001e-01 0.0000000e+00 
8.0000001e-01 6.6666669e-01 0.0000000e+00 
8.6666667e-01 6.3333333e-01 0.0000000e+00 
6.3333333e-01 8.6666667e-01 0.0000000e+00 
6.0000002e-01 1.0000000e+00 0.0000000e+00 
1.0000000e+00 6.0000002e-01 0.0000000e+00 
6.9999999e-01 7.3333335e-01 0.0000000e+00 
7.3333335e-01 6.9999999e-01 0.0000000e+00 
6.0000002e-01 9.6666664e-01 0.0000000e+00 
9.6666664e-01 6.0000002e-01 0.0000000e+00 
6.3333333e-01 8.3333331e-01 0.0000000e+00 
8.3333331e-01 6.3333333e-01 0.0000000e+00 
6.0000002e-01 9.3333334e-01 0.0000000e+00 
9.3333334e-01 6.0000002e-01 0.0000000e+00 
6.6666669e-01 7.6666665e-01 0.0000000e+00 
7.6666665e-01 6.6666669e-01 0.0000000e+00 
8.9999998e-01 6.0000002e-01 0.0000000e+00 
6.0000002e-01 8.9999998e-01 0.0000000e+00 
6.3333333e-01 8.0000001e-01 0.0000000e+00 
8.0000001e-01 6.3333333e-01 0.0000000e+00 
6.0000002e-01 8.6666667e-01 0.0000000e+00 
8.6666667e-01 6.0000002e-01 0.0000000e+00 
6.9999999e-01 6.9999999e-01 0.0000000e+00 
7.3333335e-01 6.6666669e-01 0.0000000e+00 
6.6666669e-01 7.3333335e-01 0.0000000e+00 
1.0000000e+00 5.6666666e-01 0.0000000e+00 
5.6666666e-01 1.0000000e+00 0.0000000e+00 
6.0000002e-01 8.3333331e-01 0.0000000e+00 
8.3333331e-01 6.0000002e-01 0.0000000e+00 
7.6666665e-01 6.3333333e-01 0.0000000e+00 
6.3333333e-01 7.6666665e-01 0.0000000e+00 
5.6666666e-01 9.6666664e-01 0.0000000e+00 
9.6666664e-01 5.6666666e-01 0.0000000e+00 
5.6666666e-01 9.3333334e-01 0.0000000e+00 
9.3333334e-01 5.6666666e-01 0.0000000e+00 
5.6666666e-01 8.9999998e-01 0.0000000e+00 
8.9999998e-01 5.6666666e-01 0.0000000e+00 
6.0000002e-01 8.0000001e-01 0.0000000e+00 
8.0000001e-01 6.0000002e-01 0.0000000e+00 
6.9999999e-01 6.6666669e-01 0.0000000e+00 
6.6666669e-01 6.9999999e-01 0.0000000e+00 
6.3333333e-01 7.3333335e-01 0.0000000e+00 
7.3333335e-01 6.3333333e-01 0.0000000e+00 
5.6666666e-01 8.6666667e-01 0.0000000e+00 
8.6666667e-01 5.6666666e-01 0.0000000e+00 
7.6666665e-01 6.0000002e-01 0.0000000e+00 
6.0000002e-01 7.6666665e-01 0.0000000e+00 
5.6666666e-01 8.3333331e-01 0.0000000e+00 
8.3333331e-01 5.6666666e-01 0.0000000e+00 
5.3333336e-01 1.0000000e+00 0.0000000e+00 
1.0000000e+00 5.3333336e-01 0.0000000e+00 
9.6666664e-01 5.3333336e-01 0.0000000e+00 
5.3333336e-01 9.6666664e-01 0.0000000e+00 
9.3333334e-01 5.3333336e-01 0.0000000e+00 
5.3333336e-01 9.3333334e-01 0.0000000e+00 
6.6666669e-01 6.6666669e-01 0.0000000e+00 
6.3333333e-01 6.9999999e-01 0.0000000e+00 
6.9999999e-01 6.3333333e-01 0.0000000e+00 
5.3333336e-01 8.9999998e-01 0.0000000e+00 
8.9999998e-01 5.3333336e-01 0.0000000e+00 
5.6666666e-01 8.0000001e-01 0.0000000e+00 
8.0000001e-01 5.6666666e-01 0.0000000e+00 
7.3333335e-01 6.0000002e-01 0.0000000e+00 
6.0000002e-01 7.3333335e-01 0.0000000e+00 
8.6666667e-01 5.3333336e-01 0.0000000e+00 
5.3333336e-01 8.6666667e-01 0.0000000e+00 
5.6666666e-01 7.6666665e-01 0.0000000e+00 
7.6666665e-01 5.6666666e-01 0.0000000e+00 
5.3333336e-01 8.3333331e-01 0.0000000e+00 
8.3333331e-01 5.3333336e-01 0.0000000e+00 
6.3333333e-01 6.6666669e-01 0.0000000e+00 
6.6666669e-01 6.3333333e-01 0.0000000e+00 
1.0000000e+00 5.0000000e-01 0.0000000e+00 
5.0000000e-01 1.0000000e+00 0.0000000e+00 
6.0000002e-01 6.9999999e-01 0.0000000e+00 
6.9999999e-01 6.0000002e-01 0.0000000e+00 
5.0000000e-01 9.6666664e-01 0.0000000e+00 
9.6666664e-01 5.0000000e-01 0.0000000e+00 
5.0000000e-01 9.3333334e-01 0.0000000e+00 
9.3333334e-01 5.0000000e-01 0.0000000e+00 
5.3333336e-01 8.0000001e-01 0.0000000e+00 
8.0000001e-01 5.3333336e-01 0.0000000e+00 
7.3333335e-01 5.6666666e-01 0.0000000e+00 
5.6666666e-01 7.3333335e-01 0.0000000e+00 
8.9999998e-01 5.0000000e-01 0.0000000e+00 
5.0000000e-01 8.9999998e-01 0.0000000e+00 
8.6666667e-01 5.0000000e-01 0.0000000e+00 
5.0000000e-01 8.6666667e-01 0.0000000e+00 
6.3333333e-01 6.3333333e-01 0.0000000e+00 
6.6666669e-01 6.0000002e-01 0.0000000e+00 
6.0000002e-01 6.6666669e-01 0.0000000e+00 
7.6666665e-01 5.3333336e-01 0.0000000e+00 
5.3333336e-01 7.6666665e-01 0.0000000e+00 
5.0000000e-01 8.3333331e-01 0.0000000e+00 
8.3333331e-01 5.0000000e-01 0.0000000e+00 
5.6666666e-01 6.9999999e-01 0.0000000e+00 
6.9999999e-01 5.6666666e-01 0.0000000e+00 
4.6666667e-01 1.0000000e+00 0.0000000e+00 
1.0000000e+00 4.6666667e-01 0.0000000e+00 
4.6666667e-01 9.6666664e-01 0.0000000e+00 
9.6666664e-01 4.6666667e-01 0.0000000e+00 
9.3333334e-01 4.6666667e-01 0.0000000e+00 
7.3333335e-01 5.3333336e-01 0.0000000e+00 
4.6666667e-01 9.3333334e-01 0.0000000e+00 
5.3333336e-01 7.3333335e-01 0.0000000e+00 
8.0000001e-01 5.0000000e-01 0.0000000e+00 
5.0000000e-01 8.0000001e-01 0.0000000e+00 
4.6666667e-01 8.9999998e-01 0.0000000e+00 
8.9999998e-01 4.6666667e-01 0.0000000e+00 
6.0000002e-01 6.3333333e-01 0.0000000e+00 
6.3333333e-01 6.0000002e-01 0.0000000e+00 
5.6666666e-01 6.6666669e-01 0.0000000e+00 
6.6666669e-01 5.6666666e-01 0.0000000e+00 
[...]
POINT_DATA 961
FIELD FieldData 1
TEMPERATURE 1 961  float
-1.2246469e-16
-1.0452846e-01
0.0000000e+00
-8.6284652e-02
-2.0791169e-01
0.0000000e+00
-6.8742268e-02
-1.7191821e-01
-1.3669768e-01
0.0000000e+00
-3.0901700e-01
-2.5561219e-01
-5.3029180e-02
-1.0564595e-01
-2.0325729e-01
0.0000000e+00
-4.0673664e-01
-3.9989647e-02
-3.3658051e-01
-1.5727544e-01
-2.6773575e-01
-7.9611085e-02
-5.0000000e-01
0.0000000e+00
-1.1851386e-01
-2.0735547e-01
-4.1392270e-01
-2.9889163e-02
-5.9561387e-02
-3.2942605e-01
-1.5645798e-01
-8.8893749e-02
-2.5547922e-01
0.0000000e+00
-5.8778524e-01
-2.2494046e-02
-4.8682874e-01
-3.8775903e-01
-4.4919636e-02
-1.9332311e-01
-1.1789169e-01
-6.7369014e-02
-3.0133179e-01
0.0000000e+00
-6.6913062e-01
-1.7339030e-02
-5.5454445e-01
-1.4671935e-01
-9.0124026e-02
-2.2907194e-01
-4.4220614e-01
-3.4780115e-02
-5.2637950e-02
-3.4463146e-01
-1.7570348e-01
-1.1372320e-01
-7.4314481e-01
0.0000000e+00
-2.6372832e-01
-6.1637062e-01
-1.3814320e-02
-7.1504392e-02
-2.7913053e-02
-4.9227396e-01
-1.3900773e-01
-4.2831030e-02
-3.8510758e-01
-9.2374362e-02
-2.0529582e-01
-5.9480749e-02
-2.9729736e-01
0.0000000e+00
-8.0901700e-01
-1.1334285e-02
-6.7165685e-01
-1.6709082e-01
-1.1679681e-01
-2.3122296e-02
-5.3747588e-01
-7.9374582e-02
-2.3590586e-01
-4.2243177e-01
-3.6093488e-02
-3.2962361e-01
-5.1449470e-02
-1.4685786e-01
-1.9902456e-01
-8.6602539e-01
0.0000000e+00
-1.0492624e-01
-7.1979511e-01
-9.4210235e-03
-5.7730556e-01
-1.9425550e-02
-7.1189538e-02
-2.6759347e-01
-4.5616111e-01
-3.0882919e-02
-1.3957661e-01
-1.8475379e-01
-4.5198984e-02
-3.6027232e-01
-9.8539375e-02
-2.3518744e-01
0.0000000e+00
-9.1354543e-01
-7.7285436e-03
-7.6021677e-01
-1.6105620e-02
-6.1122143e-01
-2.9979405e-01
-6.4693257e-02
-1.8794586e-01
-1.3848692e-01
-2.3185243e-01
-4.8570743e-01
-2.6061058e-02
-2.7462232e-01
-9.2996679e-02
-3.9093278e-02
-3.8848889e-01
-9.5105654e-01
0.0000000e+00
-2.5465408e-01
-1.9950123e-01
-7.9239255e-01
-6.0323342e-03
-3.3136201e-01
-5.7663471e-02
-6.3863730e-01
-1.2692954e-02
-2.8619334e-01
-1.3553552e-01
-2.0875067e-02
-5.1032090e-01
-3.1542587e-01
-8.5633337e-02
-4.1320908e-01
-3.2029595e-02
-2.9783463e-01
-1.9975564e-01
-3.3480701e-01
0.0000000e+00
-9.7814763e-01
-3.6079088e-01
-4.8511520e-02
-1.2900871e-01
-3.4349048e-01
-8.1584001e-01
-4.2081741e-03
-6.5893358e-01
-8.9306943e-03
-5.2910191e-01
-1.4915785e-02
-3.5596639e-01
-7.4087471e-02
-2.8222093e-01
-3.8670036e-01
-4.1365850e-01
-1.9628303e-01
-4.3299231e-01
-2.3384778e-02
-1.1502163e-01
-4.0504265e-01
-3.8555408e-01
-3.6256321e-02
-9.9452192e-01
0.0000000e+00
-2.2135789e-03
-8.3014745e-01
-4.7332528e-03
-6.7151248e-01
-4.0996465e-01
-4.7536343e-01
-2.7397522e-01
-5.4110783e-01
-8.0410019e-03
-3.9117920e-01
-5.6562122e-02
-1.7682451e-01
-4.8616716e-01
-1.2959201e-02
-4.4626877e-01
-4.5842555e-01
-8.8849917e-02
-4.0311119e-01
-2.0919716e-02
-5.1744789e-01
-3.6832774e-01
0.0000000e+00
-1.0000000e+00
-5.6423402e-01
-2.4743368e-01
-8.3501256e-01
-7.4971758e-05
-6.7587310e-01
-1.5637593e-04
-4.1718462e-01
-3.4083761e-02
-1.3367283e-01
-5.4083538e-01
-3.2030063e-04
-5.4545677e-01
-8.3424203e-04
-4.5149928e-01
0.0000000e+00
0.0000000e+00
0.0000000e+00
-5.1040597e-02
-4.9569893e-01
-4.1134274e-01
-2.9535983e-03
-6.2873197e-01
-1.9427423e-01
-9.9452192e-01
0.0000000e+00
-8.3029288e-01
2.1105602e-03
4.5703640e-03
-7.8728341e-02
-6.7172372e-01
-5.8887374e-01
-1.1877690e-02
-4.3365455e-01
-5.4149365e-01
7.8763040e-03
0.0000000e+00
0.0000000e+00
0.0000000e+00
0.0000000e+00
-4.4707638e-01
1.2979371e-02
-5.1586334e-02
-5.3576869e-01
0.0000000e+00
0.0000000e+00
-4.0572989e-01
2.1964446e-02
0.0000000e+00
0.0000000e+00
-9.7814763e-01
-6.6057079e-02
-6.4312720e-01
4.1865273e-03
-8.1606382e-01
0.0000000e+00
0.0000000e+00
-4.2585674e-01
4.1021489e-02
-6.5916681e-01
8.9897905e-03
0.0000000e+00
0.0000000e+00
-5.2935988e-01
1.5291242e-02
-5.2537531e-01
-4.3317404e-01
2.4646319e-02
9.2177108e-02
0.0000000e+00
0.0000000e+00
0.0000000e+00
0.0000000e+00
-3.8624796e-01
3.9938796e-02
0.0000000e+00
0.0000000e+00
1.1507979e-01
-6.3581896e-01
0.0000000e+00
-9.5105654e-01
6.6272065e-02
-7.9262018e-01
6.0560028e-03
-3.9355567e-01
0.0000000e+00
0.0000000e+00
1.2854965e-02
-6.3871408e-01
2.1430708e-02
-5.1005518e-01
0.0000000e+00
0.0000000e+00
1.1188253e-01
-4.6500853e-01
0.0000000e+00
3.3490617e-02
-4.1193062e-01
0.0000000e+00
0.0000000e+00
0.0000000e+00
0.0000000e+00
5.1894978e-02
-3.5781452e-01
-5.6348902e-01
1.6498668e-01
0.0000000e+00
0.0000000e+00
8.1055582e-02
-3.4920159e-01
-9.1354543e-01
0.0000000e+00
7.7282484e-03
-7.6040941e-01
0.0000000e+00
0.0000000e+00
1.6201252e-02
-6.1108911e-01
0.0000000e+00
0.0000000e+00
0.0000000e+00
0.0000000e+00
2.6430672e-02
-4.8489884e-01
1.2701651e-01
-3.8880801e-01
-3.8593668e-01
4.0039111e-02
0.0000000e+00
0.0000000e+00
-3.2579431e-01
5.9652053e-02
-4.7057351e-01
1.9528204e-01
0.0000000e+00
0.0000000e+00
0.0000000e+00
0.0000000e+00
0.0000000e+00
8.9390568e-02
-3.0402383e-01
0.0000000e+00
0.0000000e+00
-8.6602539e-01
0.0000000e+00
9.3254503e-03
-7.1995240e-01
-5.7701433e-01
1.9311437e-02
-5.5294025e-01
2.7662852e-01
-4.5502490e-01
3.0829303e-02
1.3544986e-01
-3.2115901e-01
0.0000000e+00
0.0000000e+00
-3.5707691e-01
4.5260593e-02
0.0000000e+00
0.0000000e+00
0.0000000e+00
0.0000000e+00
2.0828013e-01
6.4794511e-02
-2.9322115e-01
-3.7382454e-01
0.0000000e+00
0.0000000e+00
0.0000000e+00
0.0000000e+00
-2.6173598e-01
9.2775889e-02
0.0000000e+00
-8.0901700e-01
1.1094062e-02
-6.7179942e-01
2.9653117e-01
-4.4193837e-01
-5.3711498e-01
0.0000000e+00
2.2716735e-02
0.0000000e+00
-2.6214257e-01
1.3399971e-01
3.5536334e-02
-4.2123181e-01
0.0000000e+00
0.0000000e+00
0.0000000e+00
-3.2643625e-01
5.0616082e-02
0.0000000e+00
0.0000000e+00
0.0000000e+00
0.0000000e+00
-2.9046056e-01
1.9489768e-01
-2.6149625e-01
6.9627598e-02
0.0000000e+00
0.0000000e+00
-2.2391461e-01
9.5059432e-02
0.0000000e+00
2.8159812e-01
0.0000000e+00
-3.4179422e-01
0.0000000e+00
0.0000000e+00
-7.4314481e-01
0.0000000e+00
0.0000000e+00
1.3416325e-02
-6.1652064e-01
0.0000000e+00
2.7209971e-02
-4.9191833e-01
-2.1247119e-01
1.3038167e-01
-3.8402930e-01
4.1827332e-02
0.0000000e+00
0.0000000e+00
-3.8349491e-01
3.8353425e-01
5.8001511e-02
-2.9451311e-01
0.0000000e+00
-2.2259775e-01
1.7989156e-01
0.0000000e+00
7.6899506e-02
-2.3103790e-01
0.0000000e+00
0.0000000e+00
0.0000000e+00
0.0000000e+00
-1.9072001e-01
0.0000000e+00
1.0024304e-01
0.0000000e+00
0.0000000e+00
-2.4851213e-01
2.4852601e-01
-6.6913062e-01
0.0000000e+00
-5.5471641e-01
1.6804056e-02
0.0000000e+00
0.0000000e+00
3.3832446e-02
-4.4189486e-01
1.3037035e-01
-1.7193228e-01
-3.4374586e-01
5.1314749e-02
3.4181675e-01
-2.8157970e-01
0.0000000e+00
0.0000000e+00
6.9679692e-02
0.0000000e+00
-2.6144952e-01
0.0000000e+00
1.7016101e-01
-1.7015718e-01
0.0000000e+00
0.0000000e+00
-2.0170049e-01
8.9651398e-02
0.0000000e+00
0.0000000e+00
-2.9651001e-01
4.4198543e-01
1.1232068e-01
-1.6151407e-01
2.2260135e-01
-1.7988259e-01
0.0000000e+00
0.0000000e+00
0.0000000e+00
-5.8778524e-01
2.1905882e-02
-4.8703104e-01
1.3915756e-01
0.0000000e+00
-1.3915774e-01
0.0000000e+00
0.0000000e+00
4.3867726e-02
-3.8750571e-01
2.9046127e-01
-1.9488722e-01
5.5300802e-01
-2.7660969e-01
-3.0063298e-01
6.5925673e-02
0.0000000e+00
0.0000000e+00
8.8244751e-02
-2.2722560e-01
1.7192927e-01
-1.3036729e-01
0.0000000e+00
0.0000000e+00
1.1118177e-01
-1.7308497e-01
-2.0827071e-01
3.7382224e-01
2.1245989e-01
0.0000000e+00
0.0000000e+00
-1.3037646e-01
1.3532870e-01
-1.3532971e-01
0.0000000e+00
0.0000000e+00
0.0000000e+00
0.0000000e+00
0.0000000e+00
0.0000000e+00
-5.0000000e-01
0.0000000e+00
1.6151090e-01
-1.1232036e-01
2.9444266e-02
-4.1416305e-01
-1.9527845e-01
4.7059005e-01
-1.3399418e-01
2.6211524e-01
5.8711506e-02
-3.2923895e-01
8.7700322e-02
-2.5494197e-01
0.0000000e+00
0.0000000e+00
-1.0024133e-01
1.9071110e-01
1.1636102e-01
-1.9179694e-01
0.0000000e+00
0.0000000e+00
0.0000000e+00
-1.4475448e-01
-1.3544606e-01
3.2109767e-01
1.4475386e-01
-1.6498891e-01
5.6307805e-01
0.0000000e+00
0.0000000e+00
-9.5056891e-02
2.2389169e-01
1.7308314e-01
-1.1118204e-01
0.0000000e+00
0.0000000e+00
-1.2701662e-01
3.8870728e-01
2.0169573e-01
-8.9651152e-02
-4.0673664e-01
0.0000000e+00
2.6168358e-01
-9.2773460e-02
-3.3686727e-01
3.9535109e-02
-1.1506891e-01
6.2888384e-01
-2.6762852e-01
7.8826353e-02
0.0000000e+00
0.0000000e+00
-2.0696811e-01
1.1745723e-01
-7.6898761e-02
2.3102637e-01
0.0000000e+00
0.0000000e+00
1.5517443e-01
-1.5517469e-01
0.0000000e+00
0.0000000e+00
3.0391234e-01
-8.9389190e-02
-1.1188842e-01
4.6484330e-01
-1.1636121e-01
1.9179620e-01
2.6147008e-01
-6.9626622e-02
6.5274149e-01
6.6052586e-02
2.2722360e-01
-8.8244788e-02
3.4895501e-01
-8.1056029e-02
0.0000000e+00
0.0000000e+00
0.0000000e+00
5.1838863e-01
2.9316598e-01
-9.2170931e-02
2.6144466e-01
-6.9679566e-02
-6.4793728e-02
0.0000000e+00
-3.0901700e-01
1.9428214e-01
5.3219438e-02
-2.5595182e-01
6.2846494e-01
-2.0325957e-01
1.0564793e-01
-1.5706484e-01
1.5706477e-01
5.8756566e-01
-5.8001246e-02
7.8731589e-02
2.9450226e-01
2.0696788e-01
-6.6274121e-02
-1.1745729e-01
3.9301372e-01
-5.9651855e-02
3.2568729e-01
5.4399139e-01
5.1579211e-02
-8.7700367e-02
2.5494131e-01
-5.0615814e-02
3.2641360e-01
3.6833417e-01
5.1758254e-01
5.6434500e-01
2.4743778e-01
-6.5925665e-02
3.0063125e-01
-5.1895548e-02
3.5761899e-01
4.2428982e-01
-4.1020986e-02
1.3367425e-01
5.4026651e-01
-4.5260493e-02
3.5703304e-01
3.4374192e-01
-5.1314697e-02
-2.0791169e-01
0.0000000e+00
4.9455583e-01
6.8703033e-02
-1.7225833e-01
5.1040605e-02
1.3676867e-01
-1.3676868e-01
-1.0564795e-01
-4.1827265e-02
3.8402098e-01
2.0325951e-01
-3.9939903e-02
3.8592169e-01
3.8585934e-01
-4.0039320e-02
-7.8826375e-02
4.0995723e-01
2.6762834e-01
4.3550220e-01
1.1875183e-02
4.7554523e-01
2.7397722e-01
4.8610359e-01
1.7682463e-01
-5.8711510e-02
3.2923844e-01
-3.5536312e-02
4.2121550e-01
4.5781994e-01
8.8849463e-02
3.8750452e-01
-4.3867715e-02
4.1180983e-01
-3.3491176e-02
4.0535396e-01
-2.1965303e-02
4.5499560e-01
-3.0829392e-02
4.1736603e-01
3.4082577e-02
-3.3832431e-02
4.4189221e-01
0.0000000e+00
-1.0452846e-01
3.8676843e-01
2.8220400e-01
8.6705081e-02
-8.6705089e-02
4.1376725e-01
-6.8703040e-02
1.7225832e-01
1.9628036e-01
4.3301740e-01
-2.4647091e-02
-2.7209969e-02
4.9191296e-01
2.5595179e-01
-5.3219445e-02
4.1177982e-01
2.9522057e-03
4.8485145e-01
-2.6430918e-02
4.0486422e-01
1.1501922e-01
3.3686715e-01
-3.9535109e-02
5.6561217e-02
3.9103746e-01
5.3710502e-01
-2.2716770e-02
-2.9444266e-02
4.1416278e-01
4.4695863e-01
-1.2980118e-02
-2.1431113e-02
5.0998920e-01
-2.1905879e-02
4.8703042e-01
4.0327528e-01
2.0918738e-02
2.9781237e-01
3.3492222e-01
5.7699746e-01
1.9974895e-01
-1.9311532e-02
1.2900627e-01
-1.6804054e-02
5.5471510e-01
3.4347457e-01
5.2928764e-01
-1.5291743e-02
7.4085943e-02
-0.0000000e+00
1.2246469e-16
3.5588044e-01
0.0000000e+00
1.0452846e-01
8.3342474e-04
4.5160443e-01
2.0791169e-01
0.0000000e+00
-1.3416333e-02
6.1651808e-01
-1.6201422e-02
6.1106366e-01
0.0000000e+00
3.0901700e-01
3.6255419e-02
3.8557187e-01
0.0000000e+00
4.0673664e-01
6.7179477e-01
-1.1094089e-02
5.0000000e-01
0.0000000e+00
-7.8768199e-03
5.4145056e-01
2.5468481e-01
1.9949542e-01
-1.2855199e-02
6.3868147e-01
2.8622329e-01
1.3553251e-01
4.4635868e-01
1.2958472e-02
0.0000000e+00
5.8778524e-01
3.1539407e-01
8.5631698e-02
-9.3255024e-03
7.1994489e-01
3.6077172e-01
0.0000000e+00
4.8510496e-02
6.6913062e-01
-8.9900605e-03
6.5913469e-01
3.1978174e-04
5.4548568e-01
-7.7283289e-03
7.6039863e-01
7.4314481e-01
0.0000000e+00
2.3384105e-02
4.3302703e-01
1.8795489e-01
2.3187061e-01
1.3848563e-01
2.7462053e-01
9.2995137e-02
6.7170638e-01
-4.5706383e-03
0.0000000e+00
8.0901700e-01
5.4114771e-01
7.9260713e-01
-6.0561057e-03
8.0405381e-03
5.7662480e-02
3.3134249e-01
3.2028973e-02
4.1320804e-01
8.6602539e-01
0.0000000e+00
6.7588115e-01
1.5611494e-04
8.1605166e-01
-4.1866414e-03
1.3958016e-01
1.8476301e-01
9.8538801e-02
2.3519295e-01
1.4915394e-02
5.2912289e-01
0.0000000e+00
9.1354543e-01
2.9978856e-01
6.4692445e-02
-2.1106733e-03
8.3028662e-01
3.8848206e-01
3.9092712e-02
6.7152858e-01
4.7330260e-03
9.5105654e-01
0.0000000e+00
2.0874728e-02
5.1032627e-01
1.4686243e-01
1.9902983e-01
1.0492746e-01
8.3501476e-01
7.4866883e-05
2.6759416e-01
7.1189262e-02
0.0000000e+00
9.7814763e-01
8.9305034e-03
6.5894496e-01
4.5198537e-02
3.6026967e-01
4.8570815e-01
2.6060753e-02
0.0000000e+00
9.9452192e-01
8.3015323e-01
2.2134876e-03
1.6709404e-01
1.1679880e-01
6.3864267e-01
1.2692783e-02
7.9375073e-02
2.3590773e-01
3.2962281e-01
5.1449291e-02
0.0000000e+00
1.0000000e+00
3.0882681e-02
4.5616046e-01
4.2080944e-03
8.1584489e-01
6.1122304e-01
1.6105466e-02
1.3900945e-01
9.2375278e-02
2.0529738e-01
9.9452192e-01
0.0000000e+00
2.9729757e-01
5.9480909e-02
6.0322615e-03
7.9239523e-01
4.2243096e-01
3.6093380e-02
5.7730532e-01
1.9425433e-02
0.0000000e+00
9.7814763e-01
1.7570454e-01
1.1372408e-01
7.6021761e-01
7.7284793e-03
2.6372892e-01
7.1504764e-02
4.2831071e-02
3.8510743e-01
9.5105654e-01
0.0000000e+00
5.3747541e-01
2.3122236e-02
9.4209751e-03
7.1979511e-01
1.4671996e-01
9.0124421e-02
2.2907248e-01
3.4463164e-01
5.2638091e-02
0.0000000e+00
9.1354543e-01
2.7913060e-02
4.9227384e-01
1.1334260e-02
6.7165679e-01
8.6602539e-01
0.0000000e+00
1.1789198e-01
1.9332343e-01
3.0133200e-01
6.7369185e-02
3.4780167e-02
4.4220614e-01
6.1637056e-01
1.3814319e-02
8.0901700e-01
0.0000000e+00
1.5645815e-01
2.5547934e-01
8.8893890e-02
4.4919707e-02
3.8775906e-01
1.7339049e-02
5.5454445e-01
7.4314481e-01
0.0000000e+00
2.0735556e-01
1.1851396e-01
5.9561450e-02
3.2942608e-01
2.2494070e-02
4.8682871e-01
6.6913062e-01
0.0000000e+00
1.5727550e-01
2.6773578e-01
7.9611130e-02
4.1392267e-01
2.9889187e-02
5.8778524e-01
0.0000000e+00
2.0325732e-01
1.0564598e-01
3.9989665e-02
3.3658051e-01
5.0000000e-01
0.0000000e+00
1.3669769e-01
5.3029191e-02
2.5561219e-01
4.0673664e-01
0.0000000e+00
1.7191823e-01
6.8742268e-02
0.0000000e+00
3.0901700e-01
8.6284652e-02
0.0000000e+00
2.0791169e-01
0.0000000e+00
1.0452846e-01
0.0000000e+00
CELL_DATA 1800
FIELD FieldData 0
