# vtk DataFile Version 4.0
vtk output
ASCII
DATASET UNSTRUCTURED_GRID
POINTS 961 float
1.0000000e+00 1.0000000e+00 0.0000000e+00 
9.6666664e-01 1.0000000e+00 0.0000000e+00 
1.0000000e+00 9.6666664e-01 0.0000000e+00 
9.6666664e-01 9.6666664e-01 0.0000000e+00 
9.3333334e-01 1.0000000e+00 0.0000000e+00 
1.0000000e+00 9.3333334e-01 0.0000000e+00 
9.6666664e-01 9.3333334e-01 0.0000000e+00 
9.3333334e-01 9.6666664e-01 0.0000000e+00 
9.3333334e-01 9.3333334e-01 0.0000000e+00 
1.0000000e+00 8.9999998e-01 0.0000000e+00 
8.9999998e-01 1.0000000e+00 0.0000000e+00 
8.9999998e-01 9.6666664e-01 0.0000000e+00 
9.6666664e-01 8.9999998e-01 0.0000000e+00 
9.3333334e-01 8.9999998e-01 0.0000000e+00 
8.9999998e-01 9.3333334e-01 0.0000000e+00 
1.0000000e+00 8.6666667e-01 0.0000000e+00 
8.6666667e-01 1.0000000e+00 0.0000000e+00 
9.6666664e-01 8.6666667e-01 0.0000000e+00 
8.6666667e-01 9.6666664e-01 0.0000000e+00 
8.9999998e-01 8.9999998e-01 0.0000000e+00 
8.6666667e-01 9.3333334e-01 0.0000000e+00 
9.3333334e-01 8.6666667e-01 0.0000000e+00 
8.3333331e-01 1.0000000e+00 0.0000000e+00 
1.0000000e+00 8.3333331e-01 0.0000000e+00 
8.9999998e-01 8.6666667e-01 0.0000000e+00 
8.6666667e-01 8.9999998e-01 0.0000000e+00 
8.3333331e-01 9.6666664e-01 0.0000000e+00 
9.6666664e-01 8.3333331e-01 0.0000000e+00 
9.3333334e-01 8.3333331e-01 0.0000000e+00 
8.3333331e-01 9.3333334e-01 0.0000000e+00 
8.6666667e-01 8.6666667e-01 0.0000000e+00 
8.9999998e-01 8.3333331e-01 0.0000000e+00 
8.3333331e-01 8.9999998e-01 0.0000000e+00 
1.0000000e+00 8.0000001e-01 0.0000000e+00 
8.0000001e-01 1.0000000e+00 0.0000000e+00 
9.6666664e-01 8.0000001e-01 0.0000000e+00 
8.0000001e-01 9.6666664e-01 0.0000000e+00 
8.0000001e-01 9.3333334e-01 0.0000000e+00 
9.3333334e-01 8.0000001e-01 0.0000000e+00 
8.3333331e-01 8.6666667e-01 0.0000000e+00 
8.6666667e-01 8.3333331e-01 0.0000000e+00 
8.9999998e-01 8.0000001e-01 0.0000000e+00 
8.0000001e-01 8.9999998e-01 0.0000000e+00 
1.0000000e+00 7.6666665e-01 0.0000000e+00 
7.6666665e-01 1.0000000e+00 0.0000000e+00 
9.6666664e-01 7.6666665e-01 0.0000000e+00 
7.6666665e-01 9.6666664e-01 0.0000000e+00 
8.3333331e-01 8.3333331e-01 0.0000000e+00 
8.6666667e-01 8.0000001e-01 0.0000000e+00 
8.0000001e-01 8.6666667e-01 0.0000000e+00 
7.6666665e-01 9.3333334e-01 0.0000000e+00 
9.3333334e-01 7.6666665e-01 0.0000000e+00 
8.9999998e-01 7.6666665e-01 0.0000000e+00 
7.6666665e-01 8.9999998e-01 0.0000000e+00 
8.0000001e-01 8.3333331e-01 0.0000000e+00 
8.3333331e-01 8.0000001e-01 0.0000000e+00 
7.3333335e-01 1.0000000e+00 0.0000000e+00 
1.0000000e+00 7.3333335e-01 0.0000000e+00 
7.6666665e-01 8.6666667e-01 0.0000000e+00 
7.3333335e-01 9.6666664e-01 0.0000000e+00 
9.6666664e-01 7.3333335e-01 0.0000000e+00 
8.6666667e-01 7.6666665e-01 0.0000000e+00 
9.3333334e-01 7.3333335e-01 0.0000000e+00 
7.3333335e-01 9.3333334e-01 0.0000000e+00 
8.0000001e-01 8.0000001e-01 0.0000000e+00 
8.9999998e-01 7.3333335e-01 0.0000000e+00 
7.3333335e-01 8.9999998e-01 0.0000000e+00 
8.3333331e-01 7.6666665e-01 0.0000000e+00 
7.6666665e-01 8.3333331e-01 0.0000000e+00 
8.6666667e-01 7.3333335e-01 0.0000000e+00 
7.3333335e-01 8.6666667e-01 0.0000000e+00 
1.0000000e+00 6.9999999e-01 0.0000000e+00 
6.9999999e-01 1.0000000e+00 0.0000000e+00 
9.6666664e-01 6.9999999e-01 0.0000000e+00 
6.9999999e-01 9.6666664e-01 0.0000000e+00 
7.6666665e-01 8.0000001e-01 0.0000000e+00 
8.0000001e-01 7.6666665e-01 0.0000000e+00 
9.3333334e-01 6.9999999e-01 0.0000000e+00 
6.9999999e-01 9.3333334e-01 0.0000000e+00 
8.3333331e-01 7.3333335e-01 0.0000000e+00 
7.3333335e-01 8.3333331e-01 0.0000000e+00 
6.9999999e-01 8.9999998e-01 0.0000000e+00 
8.9999998e-01 6.9999999e-01 0.0000000e+00 
6.9999999e-01 8.6666667e-01 0.0000000e+00 
8.6666667e-01 6.9999999e-01 0.0000000e+00 
7.6666665e-01 7.6666665e-01 0.0000000e+00 
7.3333335e-01 8.0000001e-01 0.0000000e+00 
6.6666669e-01 1.0000000e+00 0.0000000e+00 
1.0000000e+00 6.6666669e-01 0.0000000e+00 
8.0000001e-01 7.3333335e-01 0.0000000e+00 
6.6666669e-01 9.6666664e-01 0.0000000e+00 
9.6666664e-01 6.6666669e-01 0.0000000e+00 
6.6666669e-01 9.3333334e-01 0.0000000e+00 
9.3333334e-01 6.6666669e-01 0.0000000e+00 
8.3333331e-01 6.9999999e-01 0.0000000e+00 
6.9999999e-01 8.3333331e-01 0.0000000e+00 
6.6666669e-01 8.9999998e-01 0.0000000e+00 
8.9999998e-01 6.6666669e-01 0.0000000e+00 
7.6666665e-01 7.3333335e-01 0.0000000e+00 
7.3333335e-01 7.6666665e-01 0.0000000e+00 
8.6666667e-01 6.6666669e-01 0.0000000e+00 
6.6666669e-01 8.6666667e-01 0.0000000e+00 
8.0000001e-01 6.9999999e-01 0.0000000e+00 
6.9999999e-01 8.0000001e-01 0.0000000e+00 
1.0000000e+00 6.3333333e-01 0.0000000e+00 
6.3333333e-01 1.0000000e+00 0.0000000e+00 
9.6666664e-01 6.3333333e-01 0.0000000e+00 
6.3333333e-01 9.6666664e-01 0.0000000e+00 
9.3333334e-01 6.3333333e-01 0.0000000e+00 
6.3333333e-01 9.3333334e-01 0.0000000e+00 
6.6666669e-01 8.3333331e-01 0.0000000e+00 
8.3333331e-01 6.6666669e-01 0.0000000e+00 
7.3333335e-01 7.3333335e-01 0.0000000e+00 
7.6666665e-01 6.9999999e-01 0.0000000e+00 
6.9999999e-01 7.6666665e-01 0.0000000e+00 
6.3333333e-01 8.9999998e-01 0.0000000e+00 
8.9999998e-01 6.3333333e-01 0.0000000e+00 
6.6666669e-01 8.0000001e-01 0.0000000e+00 
8.0000001e-01 6.6666669e-01 0.0000000e+00 
8.6666667e-01 6.3333333e-01 0.0000000e+00 
6.3333333e-01 8.6666667e-01 0.0000000e+00 
6.0000002e-01 1.0000000e+00 0.0000000e+00 
1.0000000e+00 6.0000002e-01 0.0000000e+00 
6.9999999e-01 7.3333335e-01 0.0000000e+00 
7.3333335e-01 6.9999999e-01 0.0000000e+00 
6.0000002e-01 9.6666664e-01 0.0000000e+00 
9.6666664e-01 6.0000002e-01 0.0000000e+00 
6.3333333e-01 8.3333331e-01 0.0000000e+00 
8.3333331e-01 6.3333333e-01 0.0000000e+00 
6.0000002e-01 9.3333334e-01 0.0000000e+00 
9.3333334e-01 6.0000002e-01 0.0000000e+00 
6.6666669e-01 7.6666665e-01 0.0000000e+00 
7.6666665e-01 6.6666669e-01 0.0000000e+00 
8.9999998e-01 6.0000002e-01 0.0000000e+00 
6.0000002e-01 8.9999998e-01 0.0000000e+00 
6.3333333e-01 8.0000001e-01 0.0000000e+00 
8.0000001e-01 6.3333333e-01 0.0000000e+00 
6.0000002e-01 8.6666667e-01 0.0000000e+00 
8.6666667e-01 6.0000002e-01 0.0000000e+00 
6.9999999e-01 6.9999999e-01 0.0000000e+00 
7.3333335e-01 6.6666669e-01 0.0000000e+00 
6.6666669e-01 7.3333335e-01 0.0000000e+00 
1.0000000e+00 5.6666666e-01 0.0000000e+00 
5.6666666e-01 1.0000000e+00 0.0000000e+00 
6.0000002e-01 8.3333331e-01 0.0000000e+00 
8.3333331e-01 6.0000002e-01 0.0000000e+00 
7.6666665e-01 6.3333333e-01 0.0000000e+00 
6.3333333e-01 7.6666665e-01 0.0000000e+00 
5.6666666e-01 9.6666664e-01 0.0000000e+00 
9.6666664e-01 5.6666666e-01 0.0000000e+00 
5.6666666e-01 9.3333334e-01 0.0000000e+00 
9.3333334e-01 5.6666666e-01 0.0000000e+00 
5.6666666e-01 8.9999998e-01 0.0000000e+00 
8.9999998e-01 5.6666666e-01 0.0000000e+00 
6.0000002e-01 8.0000001e-01 0.0000000e+00 
8.0000001e-01 6.0000002e-01 0.0000000e+00 
6.9999999e-01 6.6666669e-01 0.0000000e+00 
6.6666669e-01 6.9999999e-01 0.0000000e+00 
6.3333333e-01 7.3333335e-01 0.0000000e+00 
7.3333335e-01 6.3333333e-01 0.0000000e+00 
5.6666666e-01 8.6666667e-01 0.0000000e+00 
8.6666667e-01 5.6666666e-01 0.0000000e+00 
7.6666665e-01 6.0000002e-01 0.0000000e+00 
6.0000002e-01 7.6666665e-01 0.0000000e+00 
5.6666666e-01 8.3333331e-01 0.0000000e+00 
8.3333331e-01 5.6666666e-01 0.0000000e+00 
5.3333336e-01 1.0000000e+00 0.0000000e+00 
1.0000000e+00 5.3333336e-01 0.0000000e+00 
9.6666664e-01 5.3333336e-01 0.0000000e+00 
5.3333336e-01 9.6666664e-01 0.0000000e+00 
9.3333334e-01 5.3333336e-01 0.0000000e+00 
5.3333336e-01 9.3333334e-01 0.0000000e+00 
6.6666669e-01 6.6666669e-01 0.0000000e+00 
6.3333333e-01 6.9999999e-01 0.0000000e+00 
6.9999999e-01 6.3333333e-01 0.0000000e+00 
5.3333336e-01 8.9999998e-01 0.0000000e+00 
8.9999998e-01 5.3333336e-01 0.0000000e+00 
5.6666666e-01 8.0000001e-01 0.0000000e+00 
8.0000001e-01 5.6666666e-01 0.0000000e+00 
7.3333335e-01 6.0000002e-01 0.0000000e+00 
6.0000002e-01 7.3333335e-01 0.0000000e+00 
8.6666667e-01 5.3333336e-01 0.0000000e+00 
5.3333336e-01 8.6666667e-01 0.0000000e+00 
5.6666666e-01 7.6666665e-01 0.0000000e+00 
7.6666665e-01 5.6666666e-01 0.0000000e+00 
5.3333336e-01 8.3333331e-01 0.0000000e+00 
8.3333331e-01 5.3333336e-01 0.0000000e+00 
6.3333333e-01 6.6666669e-01 0.0000000e+00 
6.6666669e-01 6.3333333e-01 0.0000000e+00 
1.0000000e+00 5.0000000e-01 0.0000000e+00 
5.0000000e-01 1.0000000e+00 0.0000000e+00 
6.0000002e-01 6.9999999e-01 0.0000000e+00 
6.9999999e-01 6.0000002e-01 0.0000000e+00 
5.0000000e-01 9.6666664e-01 0.0000000e+00 
9.6666664e-01 5.0000000e-01 0.0000000e+00 
5.0000000e-01 9.3333334e-01 0.0000000e+00 
9.3333334e-01 5.0000000e-01 0.0000000e+00 
5.3333336e-01 8.0000001e-01 0.0000000e+00 
8.0000001e-01 5.3333336e-01 0.0000000e+00 
7.3333335e-01 5.6666666e-01 0.0000000e+00 
5.6666666e-01 7.3333335e-01 0.0000000e+00 
8.9999998e-01 5.0000000e-01 0.0000000e+00 
5.0000000e-01 8.9999998e-01 0.0000000e+00 
8.6666667e-01 5.0000000e-01 0.0000000e+00 
5.0000000e-01 8.6666667e-01 0.0000000e+00 
6.3333333e-01 6.3333333e-01 0.0000000e+00 
6.6666669e-01 6.0000002e-01 0.0000000e+00 
6.0000002e-01 6.6666669e-01 0.0000000e+00 
7.6666665e-01 5.3333336e-01 0.0000000e+00 
5.3333336e-01 7.6666665e-01 0.0000000e+00 
5.0000000e-01 8.3333331e-01 0.0000000e+00 
8.3333331e-01 5.0000000e-01 0.0000000e+00 
5.6666666e-01 6.9999999e-01 0.0000000e+00 
6.9999999e-01 5.6666666e-01 0.0000000e+00 
4.6666667e-01 1.0000000e+00 0.0000000e+00 
1.0000000e+00 4.6666667e-01 0.0000000e+00 
4.6666667e-01 9.6666664e-01 0.0000000e+00 
9.6666664e-01 4.6666667e-01 0.0000000e+00 
9.3333334e-01 4.6666667e-01 0.0000000e+00 
7.3333335e-01 5.3333336e-01 0.0000000e+00 
4.6666667e-01 9.3333334e-01 0.0000000e+00 
5.3333336e-01 7.3333335e-01 0.0000000e+00 
8.0000001e-01 5.0000000e-01 0.0000000e+00 
5.0000000e-01 8.0000001e-01 0.0000000e+00 
4.6666667e-01 8.9999998e-01 0.0000000e+00 
8.9999998e-01 4.6666667e-01 0.0000000e+00 
6.0000002e-01 6.3333333e-01 0.0000000e+00 
6.3333333e-01 6.0000002e-01 0.0000000e+00 
5.6666666e-01 6.6666669e-01 0.0000000e+00 
6.6666669e-01 5.6666666e-01 0.0000000e+00 
[...]
POINT_DATA 961
FIELD FieldData 1
TEMPERATURE 1 961  float
-1.2246469e-16
-1.0452846e-01
0.0000000e+00
-1.0111553e-01
-2.0791169e-01
0.0000000e+00
-9.6791774e-02
-2.0124702e-01
-1.9274808e-01
0.0000000e+00
-3.0901700e-01
-2.9937041e-01
-9.1735132e-02
-1.8278471e-01
-2.8698021e-01
0.0000000e+00
-4.0673664e-01
-8.6106814e-02
-3.9447719e-01
-2.7239853e-01
-3.7858894e-01
-1.7167461e-01
-5.0000000e-01
0.0000000e+00
-2.5609761e-01
-3.5979882e-01
-4.8556983e-01
-8.0027819e-02
-1.5966001e-01
-4.6666247e-01
-3.3872744e-01
-2.3843615e-01
-4.4417092e-01
0.0000000e+00
-5.8778524e-01
-7.3577680e-02
-5.7166892e-01
-5.5027533e-01
-1.4689662e-01
-4.1885263e-01
-3.1583810e-01
-2.1963654e-01
-5.2465260e-01
0.0000000e+00
-6.6913062e-01
-6.6792689e-02
-6.5181929e-01
-3.9126387e-01
-2.9140922e-01
-4.9568349e-01
-6.2848926e-01
-1.3345250e-01
-1.9979012e-01
-6.0033232e-01
-4.6400696e-01
-3.6172700e-01
-7.4314481e-01
0.0000000e+00
-5.6834501e-01
-7.2509950e-01
-5.9674568e-02
-2.6554167e-01
-1.1932628e-01
-7.0036215e-01
-4.2997968e-01
-1.7888120e-01
-6.7025441e-01
-3.3033746e-01
-5.3324372e-01
-2.3819050e-01
-6.3587886e-01
0.0000000e+00
-8.0901700e-01
-5.2203108e-02
-7.9063463e-01
-4.9540696e-01
-3.9367041e-01
-1.0447240e-01
-7.6496208e-01
-2.9699838e-01
-5.9802330e-01
-7.3343742e-01
-1.5682910e-01
-6.9726163e-01
-2.0922433e-01
-4.5486355e-01
-5.5707949e-01
-8.6602539e-01
0.0000000e+00
-3.5490155e-01
-8.4761184e-01
-4.4352487e-02
-8.2139182e-01
-8.8835098e-02
-2.6150131e-01
-6.5728253e-01
-7.8890598e-01
-1.3353959e-01
-4.1134930e-01
-5.1306432e-01
-1.7849636e-01
-7.5144053e-01
-3.1336221e-01
-6.1391997e-01
0.0000000e+00
-9.1354543e-01
-3.6107369e-02
-8.9529908e-01
-7.2379723e-02
-8.6881769e-01
-7.0989722e-01
-2.2363593e-01
-4.6562654e-01
-3.6438668e-01
-5.6721526e-01
-8.3572888e-01
-1.0895234e-01
-6.6473502e-01
-2.6876029e-01
-1.4591546e-01
-7.9739040e-01
-9.5105654e-01
0.0000000e+00
-5.1680136e-01
-4.1402856e-01
-9.3306392e-01
-2.7476028e-02
-7.5476247e-01
-1.8328811e-01
-9.0650010e-01
-5.5120934e-02
-6.1597186e-01
-3.1347755e-01
-8.3085135e-02
-8.7306345e-01
-7.0831901e-01
-2.2101018e-01
-8.3417219e-01
-1.1149068e-01
-4.6215442e-01
-3.5695103e-01
-5.6319422e-01
0.0000000e+00
-9.7814763e-01
-7.9083359e-01
-1.4042087e-01
-2.5887933e-01
-6.5803039e-01
-9.6039134e-01
-1.8501036e-02
-9.3382382e-01
-3.7145339e-02
-9.0019697e-01
-5.6066662e-02
-7.4352282e-01
-1.6997707e-01
-3.9854684e-01
-5.0537473e-01
-6.0337633e-01
-2.9611272e-01
-8.6097133e-01
-7.5381197e-02
-2.0056038e-01
-6.9231707e-01
-8.1717396e-01
-9.5164515e-02
-9.9452192e-01
0.0000000e+00
-9.2633925e-03
-9.7690040e-01
-1.8616738e-02
-9.5032597e-01
-4.4045195e-01
-5.4304576e-01
-3.3190620e-01
-9.1658556e-01
-2.8151857e-02
-7.6923627e-01
-1.1535277e-01
-2.3050831e-01
-6.3590097e-01
-3.7985206e-02
-8.7717122e-01
-7.1705371e-01
-1.3556862e-01
-8.3314675e-01
-4.8251081e-02
-4.7655815e-01
-3.6619577e-01
0.0000000e+00
-1.0000000e+00
-5.7484317e-01
-2.6034099e-01
-9.8235810e-01
1.2145873e-04
-9.5571911e-01
2.3404790e-04
-7.8492272e-01
-5.8844697e-02
-1.5847726e-01
-6.5948445e-01
3.1560240e-04
-9.2188329e-01
2.6156838e-04
-8.8237029e-01
0.0000000e+00
0.0000000e+00
0.0000000e+00
-6.7701794e-02
-7.3209184e-01
-8.3830321e-01
-3.1173392e-04
-5.9762299e-01
-1.8256658e-01
-9.9452192e-01
0.0000000e+00
-9.7669035e-01
9.5072500e-03
1.9106880e-02
-8.1672221e-02
-9.4991142e-01
-6.7421514e-01
-3.0612990e-03
-7.9029292e-01
-9.1597110e-01
2.8901262e-02
0.0000000e+00
0.0000000e+00
0.0000000e+00
0.0000000e+00
-8.7637502e-01
3.9024670e-02
-1.5278606e-02
-7.3902166e-01
0.0000000e+00
0.0000000e+00
-8.3217800e-01
4.9766377e-02
0.0000000e+00
0.0000000e+00
-9.7814763e-01
-2.2219373e-02
-6.8179685e-01
1.8728919e-02
-9.5998746e-01
0.0000000e+00
0.0000000e+00
-7.8375608e-01
6.2146712e-02
-9.3302393e-01
3.7627745e-02
0.0000000e+00
0.0000000e+00
-8.9900845e-01
5.6879424e-02
-7.3078340e-01
-8.5940886e-01
7.6701157e-02
8.1340060e-02
0.0000000e+00
0.0000000e+00
0.0000000e+00
0.0000000e+00
-8.1524372e-01
9.7390689e-02
0.0000000e+00
0.0000000e+00
8.8545531e-02
-6.7327487e-01
0.0000000e+00
-9.5105654e-01
1.1944945e-01
-9.3249863e-01
2.7652314e-02
-7.6692426e-01
0.0000000e+00
0.0000000e+00
5.5508148e-02
-9.0537685e-01
8.3771363e-02
-8.7139022e-01
0.0000000e+00
0.0000000e+00
1.4338459e-01
-7.1434426e-01
0.0000000e+00
1.1263733e-01
-8.3195466e-01
0.0000000e+00
0.0000000e+00
0.0000000e+00
0.0000000e+00
1.4228950e-01
-7.8806806e-01
-6.5653628e-01
1.6368811e-01
0.0000000e+00
0.0000000e+00
1.7281021e-01
-7.4017817e-01
-9.1354543e-01
0.0000000e+00
3.6197115e-02
-8.9461887e-01
0.0000000e+00
0.0000000e+00
7.2586931e-02
-8.6746281e-01
0.0000000e+00
0.0000000e+00
0.0000000e+00
0.0000000e+00
1.0934868e-01
-8.3370864e-01
2.0389068e-01
-6.8812823e-01
-7.9471779e-01
1.4662145e-01
0.0000000e+00
0.0000000e+00
-7.5145543e-01
1.8448271e-01
-6.3136351e-01
2.3378788e-01
0.0000000e+00
0.0000000e+00
0.0000000e+00
0.0000000e+00
0.0000000e+00
2.2290479e-01
-7.0437747e-01
0.0000000e+00
0.0000000e+00
-8.6602539e-01
0.0000000e+00
4.4335488e-02
-8.4687197e-01
-8.1991512e-01
8.8813797e-02
-5.6964332e-01
2.6186585e-01
-7.8670567e-01
1.3355426e-01
2.6177835e-01
-6.5342540e-01
0.0000000e+00
0.0000000e+00
-7.4854594e-01
1.7861541e-01
0.0000000e+00
0.0000000e+00
0.0000000e+00
0.0000000e+00
3.0127585e-01
2.2395745e-01
-7.0636511e-01
-5.9787601e-01
0.0000000e+00
0.0000000e+00
0.0000000e+00
0.0000000e+00
-6.6065502e-01
2.6940367e-01
0.0000000e+00
-8.0901700e-01
5.2080519e-02
-7.8989220e-01
3.3624130e-01
-5.3767633e-01
-7.6347631e-01
0.0000000e+00
1.0422133e-01
0.0000000e+00
-6.1144871e-01
3.1458333e-01
1.5645595e-01
-7.3122591e-01
0.0000000e+00
0.0000000e+00
0.0000000e+00
-6.9437277e-01
2.0874459e-01
0.0000000e+00
0.0000000e+00
0.0000000e+00
0.0000000e+00
-5.5841887e-01
3.5882220e-01
-6.5381181e-01
2.6093328e-01
0.0000000e+00
0.0000000e+00
-6.1003834e-01
3.1271020e-01
0.0000000e+00
4.0038869e-01
0.0000000e+00
-5.0121152e-01
0.0000000e+00
0.0000000e+00
-7.4314481e-01
0.0000000e+00
0.0000000e+00
5.9468254e-02
-7.2440612e-01
0.0000000e+00
1.1888876e-01
-6.9896823e-01
-5.6315029e-01
3.6355099e-01
-6.6817886e-01
1.7818935e-01
0.0000000e+00
0.0000000e+00
-4.3818358e-01
4.3817648e-01
2.3722155e-01
-6.3318539e-01
0.0000000e+00
-5.1292002e-01
4.1266334e-01
0.0000000e+00
2.9572031e-01
-5.9483564e-01
0.0000000e+00
0.0000000e+00
0.0000000e+00
0.0000000e+00
-5.5361736e-01
0.0000000e+00
3.5326314e-01
0.0000000e+00
0.0000000e+00
-4.5887285e-01
4.5886675e-01
-6.6913062e-01
0.0000000e+00
-6.5121526e-01
6.6539370e-02
0.0000000e+00
0.0000000e+00
1.3290280e-01
-6.2726527e-01
4.0923816e-01
-5.0966728e-01
-5.9850365e-01
1.9889925e-01
5.0120133e-01
-4.0039358e-01
0.0000000e+00
0.0000000e+00
2.6426387e-01
0.0000000e+00
-5.6597924e-01
0.0000000e+00
4.6280214e-01
-4.6280473e-01
0.0000000e+00
0.0000000e+00
-5.3047758e-01
3.2862318e-01
0.0000000e+00
0.0000000e+00
-3.3624157e-01
5.3766620e-01
3.9146137e-01
-4.9246716e-01
5.1291633e-01
-4.1266623e-01
0.0000000e+00
0.0000000e+00
0.0000000e+00
-5.8778524e-01
7.3318437e-02
-5.7118070e-01
4.5209402e-01
0.0000000e+00
-4.5209730e-01
0.0000000e+00
0.0000000e+00
1.4631999e-01
-5.4927087e-01
5.5841237e-01
-3.5882470e-01
5.6963366e-01
-2.6186469e-01
-5.2313918e-01
2.1868257e-01
0.0000000e+00
0.0000000e+00
2.9002139e-01
-4.9372080e-01
5.0966507e-01
-4.0924120e-01
0.0000000e+00
0.0000000e+00
3.5985544e-01
-4.6172503e-01
-3.0127576e-01
5.9787065e-01
5.6314933e-01
0.0000000e+00
0.0000000e+00
-3.6355361e-01
4.2758298e-01
-4.2758724e-01
0.0000000e+00
0.0000000e+00
0.0000000e+00
0.0000000e+00
0.0000000e+00
0.0000000e+00
-5.0000000e-01
0.0000000e+00
4.9246356e-01
-3.9146531e-01
7.9801440e-02
-4.8520926e-01
-2.3378658e-01
6.3136268e-01
-3.1458521e-01
6.1144882e-01
1.5913460e-01
-4.6589965e-01
2.3754391e-01
-4.4300067e-01
0.0000000e+00
0.0000000e+00
-3.5326666e-01
5.5361521e-01
3.1451839e-01
-4.1731974e-01
0.0000000e+00
0.0000000e+00
0.0000000e+00
-3.8947615e-01
-2.6177940e-01
6.5343076e-01
3.8947183e-01
-1.6368891e-01
6.5660387e-01
0.0000000e+00
0.0000000e+00
-3.1271327e-01
6.1003852e-01
4.6172065e-01
-3.5985970e-01
0.0000000e+00
0.0000000e+00
-2.0389117e-01
6.8815041e-01
5.3047371e-01
-3.2862723e-01
-4.0673664e-01
0.0000000e+00
6.6065925e-01
-2.6940614e-01
-3.9424261e-01
8.5939333e-02
-8.8548668e-02
6.7424899e-01
-3.7806466e-01
1.7125876e-01
0.0000000e+00
0.0000000e+00
-3.5896617e-01
2.5536001e-01
-2.9572397e-01
5.9483314e-01
0.0000000e+00
0.0000000e+00
3.3760983e-01
-3.3761334e-01
0.0000000e+00
0.0000000e+00
7.0438910e-01
-2.2290663e-01
-1.4338575e-01
7.1437967e-01
-3.1452221e-01
4.1731566e-01
6.5381169e-01
-2.6093653e-01
6.8040371e-01
2.2220360e-02
4.9371654e-01
-2.9002520e-01
7.4021077e-01
-1.7281163e-01
0.0000000e+00
0.0000000e+00
0.0000000e+00
7.3178256e-01
7.0636886e-01
-8.1343032e-02
5.6597525e-01
-2.6426753e-01
-2.2396021e-01
0.0000000e+00
-3.0901700e-01
1.8256526e-01
9.1640711e-02
-2.9924786e-01
5.9765810e-01
-2.8667045e-01
1.8250760e-01
-2.7187124e-01
2.7186891e-01
6.7440313e-01
-2.3722492e-01
8.1671543e-02
6.3318241e-01
3.5896319e-01
-1.1945062e-01
-2.5536278e-01
7.6700318e-01
-1.8448500e-01
7.5146592e-01
7.3786271e-01
1.5279672e-02
-2.3754692e-01
4.4299719e-01
-2.0874760e-01
6.9437158e-01
3.6619419e-01
4.7653610e-01
5.7482505e-01
2.6033998e-01
-2.1868564e-01
5.2313542e-01
-1.4229141e-01
7.8808892e-01
7.8397167e-01
-6.2147956e-02
1.5847683e-01
6.5956986e-01
-1.7861804e-01
7.4854767e-01
5.9850001e-01
-1.9890222e-01
-2.0791169e-01
0.0000000e+00
7.3226941e-01
9.6762083e-02
-2.0121062e-01
6.7701556e-02
1.9260895e-01
-1.9261009e-01
-1.8250918e-01
-1.7819211e-01
6.6817582e-01
2.8666878e-01
-9.7392283e-02
8.1528282e-01
7.9472357e-01
-1.4662370e-01
-1.7126065e-01
4.4045120e-01
3.7806249e-01
7.9003292e-01
3.0611057e-03
5.4301882e-01
3.3190623e-01
6.3591129e-01
2.3050827e-01
-1.5913667e-01
4.6589708e-01
-1.5645842e-01
7.3122400e-01
7.1715057e-01
1.3556844e-01
5.4926813e-01
-1.4632210e-01
8.3196557e-01
-1.1263921e-01
8.3222336e-01
-4.9767628e-02
7.8670549e-01
-1.3355644e-01
7.8490317e-01
5.8844458e-02
-1.3290486e-01
6.2726247e-01
0.0000000e+00
-1.0452846e-01
5.0536376e-01
3.9854950e-01
1.0112788e-01
-1.0112818e-01
6.0336012e-01
-9.6762650e-02
2.0121004e-01
2.9611388e-01
8.5942328e-01
-7.6702684e-02
-1.1889068e-01
6.9896573e-01
2.9924700e-01
-9.1641508e-02
8.3823985e-01
3.1101593e-04
8.3371061e-01
-1.0935055e-01
6.9234663e-01
2.0056118e-01
3.9424148e-01
-8.5940294e-02
1.1535270e-01
7.6925904e-01
7.6347440e-01
-1.0422306e-01
-7.9802498e-02
4.8520792e-01
8.7638444e-01
-3.9025839e-02
-8.3772920e-02
8.7139428e-01
-7.3319525e-02
5.7117921e-01
8.3312500e-01
4.8250634e-02
4.6215859e-01
5.6317616e-01
8.1991416e-01
3.5695282e-01
-8.8815317e-02
2.5888026e-01
-6.6540420e-02
6.5121377e-01
6.5803415e-01
8.9901292e-01
-5.6880679e-02
1.6997743e-01
-0.0000000e+00
1.2246469e-16
7.4353641e-01
0.0000000e+00
1.0452846e-01
-2.6235275e-04
8.8235188e-01
2.0791169e-01
0.0000000e+00
-5.9469238e-02
7.2440469e-01
-7.2588235e-02
8.6746281e-01
0.0000000e+00
3.0901700e-01
9.5164366e-02
8.1717181e-01
0.0000000e+00
4.0673664e-01
7.8989106e-01
-5.2081410e-02
5.0000000e-01
0.0000000e+00
-2.8902214e-02
9.1597193e-01
5.1679742e-01
4.1403010e-01
-5.5509232e-02
9.0537763e-01
6.1596793e-01
3.1347868e-01
8.7715703e-01
3.7984744e-02
0.0000000e+00
5.8778524e-01
7.0832336e-01
2.2101077e-01
-4.4336267e-02
8.4687120e-01
7.9083526e-01
0.0000000e+00
1.4042103e-01
6.6913062e-01
-3.7628613e-02
9.3302453e-01
-3.1625372e-04
9.2187542e-01
-3.6197782e-02
8.9461851e-01
7.4314481e-01
0.0000000e+00
7.5381018e-02
8.6096507e-01
4.6562615e-01
5.6721354e-01
3.6438769e-01
6.6473514e-01
2.6876107e-01
9.4991022e-01
-1.9107532e-02
0.0000000e+00
8.0901700e-01
9.1657752e-01
9.3249851e-01
-2.7652867e-02
2.8151469e-02
1.8328848e-01
7.5476360e-01
1.1149073e-01
8.3417016e-01
8.6602539e-01
0.0000000e+00
9.5571512e-01
-2.3449783e-04
9.5998716e-01
-1.8729357e-02
4.1134986e-01
5.1306421e-01
3.1336302e-01
6.1391997e-01
5.6066491e-02
9.0019196e-01
0.0000000e+00
9.1354543e-01
7.0989758e-01
2.2363646e-01
-9.5075797e-03
9.7668934e-01
7.9738975e-01
1.4591570e-01
9.5032156e-01
1.8616466e-02
9.5105654e-01
0.0000000e+00
8.3085142e-02
8.7306070e-01
4.5486420e-01
5.5708003e-01
3.5490230e-01
9.8235625e-01
-1.2168527e-04
6.5728325e-01
2.6150194e-01
0.0000000e+00
9.7814763e-01
3.7145216e-02
9.3382043e-01
1.7849675e-01
7.5144082e-01
8.3572787e-01
1.0895249e-01
0.0000000e+00
9.9452192e-01
9.7689837e-01
9.2632556e-03
4.9540782e-01
3.9367121e-01
9.0649813e-01
5.5120930e-02
2.9699907e-01
5.9802425e-01
6.9726241e-01
2.0922482e-01
0.0000000e+00
1.0000000e+00
1.3353986e-01
7.8890616e-01
1.8500973e-02
9.6038973e-01
8.6881697e-01
7.2379820e-02
4.2998055e-01
3.3033821e-01
5.3324467e-01
9.9452192e-01
0.0000000e+00
6.3587976e-01
2.3819107e-01
2.7476024e-02
9.3306297e-01
7.3343796e-01
1.5682946e-01
8.2139176e-01
8.8835262e-02
0.0000000e+00
9.7814763e-01
4.6400791e-01
3.6172780e-01
8.9529872e-01
3.6107413e-02
5.6834596e-01
2.6554230e-01
1.7888162e-01
6.7025512e-01
9.5105654e-01
0.0000000e+00
7.6496243e-01
1.0447263e-01
4.4352569e-02
8.4761178e-01
3.9126468e-01
2.9140991e-01
4.9568439e-01
6.0033309e-01
1.9979060e-01
0.0000000e+00
9.1354543e-01
1.1932655e-01
7.0036262e-01
5.2203219e-02
7.9063481e-01
8.6602539e-01
0.0000000e+00
3.1583878e-01
4.1885340e-01
5.2465338e-01
2.1963704e-01
1.3345282e-01
6.2848985e-01
7.2509974e-01
5.9674703e-02
8.0901700e-01
0.0000000e+00
3.3872807e-01
4.4417158e-01
2.3843664e-01
1.4689694e-01
5.5027586e-01
6.6792846e-02
6.5181959e-01
7.4314481e-01
0.0000000e+00
3.5979933e-01
2.5609806e-01
1.5966034e-01
4.6666294e-01
7.3577836e-02
5.7166922e-01
6.6913062e-01
0.0000000e+00
2.7239892e-01
3.7858930e-01
1.7167489e-01
4.8557007e-01
8.0027975e-02
5.8778524e-01
0.0000000e+00
2.8698048e-01
1.8278496e-01
8.6106963e-02
3.9447737e-01
5.0000000e-01
0.0000000e+00
1.9274826e-01
9.1735251e-02
2.9937053e-01
4.0673664e-01
0.0000000e+00
2.0124711e-01
9.6791863e-02
0.0000000e+00
3.0901700e-01
1.0111558e-01
0.0000000e+00
2.0791169e-01
0.0000000e+00
1.0452846e-01
0.0000000e+00
CELL_DATA 1800
FIELD FieldData 0
