# vtk DataFile Version 4.0
vtk output
ASCII
DATASET UNSTRUCTURED_GRID
POINTS 961 float
1.0000000e+00 1.0000000e+00 0.0000000e+00 
9.6666664e-01 1.0000000e+00 0.0000000e+00 
1.0000000e+00 9.6666664e-01 0.0000000e+00 
9.6666664e-01 9.6666664e-01 0.0000000e+00 
9.3333334e-01 1.0000000e+00 0.0000000e+00 
1.0000000e+00 9.3333334e-01 0.0000000e+00 
9.6666664e-01 9.3333334e-01 0.0000000e+00 
9.3333334e-01 9.6666664e-01 0.0000000e+00 
9.3333334e-01 9.3333334e-01 0.0000000e+00 
1.0000000e+00 8.9999998e-01 0.0000000e+00 
8.9999998e-01 1.0000000e+00 0.0000000e+00 
8.9999998e-01 9.6666664e-01 0.0000000e+00 
9.6666664e-01 8.9999998e-01 0.0000000e+00 
9.3333334e-01 8.9999998e-01 0.0000000e+00 
8.9999998e-01 9.3333334e-01 0.0000000e+00 
1.0000000e+00 8.6666667e-01 0.0000000e+00 
8.6666667e-01 1.0000000e+00 0.0000000e+00 
9.6666664e-01 8.6666667e-01 0.0000000e+00 
8.6666667e-01 9.6666664e-01 0.0000000e+00 
8.9999998e-01 8.9999998e-01 0.0000000e+00 
8.6666667e-01 9.3333334e-01 0.0000000e+00 
9.3333334e-01 8.6666667e-01 0.0000000e+00 
8.3333331e-01 1.0000000e+00 0.0000000e+00 
1.0000000e+00 8.3333331e-01 0.0000000e+00 
8.9999998e-01 8.6666667e-01 0.0000000e+00 
8.6666667e-01 8.9999998e-01 0.0000000e+00 
8.3333331e-01 9.6666664e-01 0.0000000e+00 
9.6666664e-01 8.3333331e-01 0.0000000e+00 
9.3333334e-01 8.3333331e-01 0.0000000e+00 
8.3333331e-01 9.3333334e-01 0.0000000e+00 
8.6666667e-01 8.6666667e-01 0.0000000e+00 
8.9999998e-01 8.3333331e-01 0.0000000e+00 
8.3333331e-01 8.9999998e-01 0.0000000e+00 
1.0000000e+00 8.0000001e-01 0.0000000e+00 
8.0000001e-01 1.0000000e+00 0.0000000e+00 
9.6666664e-01 8.0000001e-01 0.0000000e+00 
8.0000001e-01 9.6666664e-01 0.0000000e+00 
8.0000001e-01 9.3333334e-01 0.0000000e+00 
9.3333334e-01 8.0000001e-01 0.0000000e+00 
8.3333331e-01 8.6666667e-01 0.0000000e+00 
8.6666667e-01 8.3333331e-01 0.0000000e+00 
8.9999998e-01 8.0000001e-01 0.0000000e+00 
8.0000001e-01 8.9999998e-01 0.0000000e+00 
1.0000000e+00 7.6666665e-01 0.0000000e+00 
7.6666665e-01 1.0000000e+00 0.0000000e+00 
9.6666664e-01 7.6666665e-01 0.0000000e+00 
7.6666665e-01 9.6666664e-01 0.0000000e+00 
8.3333331e-01 8.3333331e-01 0.0000000e+00 
8.6666667e-01 8.0000001e-01 0.0000000e+00 
8.0000001e-01 8.6666667e-01 0.0000000e+00 
7.6666665e-01 9.3333334e-01 0.0000000e+00 
9.3333334e-01 7.6666665e-01 0.0000000e+00 
8.9999998e-01 7.6666665e-01 0.0000000e+00 
7.6666665e-01 8.9999998e-01 0.0000000e+00 
8.0000001e-01 8.3333331e-01 0.0000000e+00 
8.3333331e-01 8.0000001e-01 0.0000000e+00 
7.3333335e-01 1.0000000e+00 0.0000000e+00 
1.0000000e+00 7.3333335e-01 0.0000000e+00 
7.6666665e-01 8.6666667e-01 0.0000000e+00 
7.3333335e-01 9.6666664e-01 0.0000000e+00 
9.6666664e-01 7.3333335e-01 0.0000000e+00 
8.6666667e-01 7.6666665e-01 0.0000000e+00 
9.3333334e-01 7.3333335e-01 0.0000000e+00 
7.3333335e-01 9.3333334e-01 0.0000000e+00 
8.0000001e-01 8.0000001e-01 0.0000000e+00 
8.9999998e-01 7.3333335e-01 0.0000000e+00 
7.3333335e-01 8.9999998e-01 0.0000000e+00 
8.3333331e-01 7.6666665e-01 0.0000000e+00 
7.6666665e-01 8.3333331e-01 0.0000000e+00 
8.6666667e-01 7.3333335e-01 0.0000000e+00 
7.3333335e-01 8.6666667e-01 0.0000000e+00 
1.0000000e+00 6.9999999e-01 0.0000000e+00 
6.9999999e-01 1.0000000e+00 0.0000000e+00 
9.6666664e-01 6.9999999e-01 0.0000000e+00 
6.9999999e-01 9.6666664e-01 0.0000000e+00 
7.6666665e-01 8.0000001e-01 0.0000000e+00 
8.0000001e-01 7.6666665e-01 0.0000000e+00 
9.3333334e-01 6.9999999e-01 0.0000000e+00 
6.9999999e-01 9.3333334e-01 0.0000000e+00 
8.3333331e-01 7.3333335e-01 0.0000000e+00 
7.3333335e-01 8.3333331e-01 0.0000000e+00 
6.9999999e-01 8.9999998e-01 0.0000000e+00 
8.9999998e-01 6.9999999e-01 0.0000000e+00 
6.9999999e-01 8.6666667e-01 0.0000000e+00 
8.6666667e-01 6.9999999e-01 0.0000000e+00 
7.6666665e-01 7.6666665e-01 0.0000000e+00 
7.3333335e-01 8.0000001e-01 0.0000000e+00 
6.6666669e-01 1.0000000e+00 0.0000000e+00 
1.0000000e+00 6.6666669e-01 0.0000000e+00 
8.0000001e-01 7.3333335e-01 0.0000000e+00 
6.6666669e-01 9.6666664e-01 0.0000000e+00 
9.6666664e-01 6.6666669e-01 0.0000000e+00 
6.6666669e-01 9.3333334e-01 0.0000000e+00 
9.3333334e-01 6.6666669e-01 0.0000000e+00 
8.3333331e-01 6.9999999e-01 0.0000000e+00 
6.9999999e-01 8.3333331e-01 0.0000000e+00 
6.6666669e-01 8.9999998e-01 0.0000000e+00 
8.9999998e-01 6.6666669e-01 0.0000000e+00 
7.6666665e-01 7.3333335e-01 0.0000000e+00 
7.3333335e-01 7.6666665e-01 0.0000000e+00 
8.6666667e-01 6.6666669e-01 0.0000000e+00 
6.6666669e-01 8.6666667e-01 0.0000000e+00 
8.0000001e-01 6.9999999e-01 0.0000000e+00 
6.9999999e-01 8.0000001e-01 0.0000000e+00 
1.0000000e+00 6.3333333e-01 0.0000000e+00 
6.3333333e-01 1.0000000e+00 0.0000000e+00 
9.6666664e-01 6.3333333e-01 0.0000000e+00 
6.3333333e-01 9.6666664e-01 0.0000000e+00 
9.3333334e-01 6.3333333e-01 0.0000000e+00 
6.3333333e-01 9.3333334e-01 0.0000000e+00 
6.6666669e-01 8.3333331e-01 0.0000000e+00 
8.3333331e-01 6.6666669e-01 0.0000000e+00 
7.3333335e-01 7.3333335e-01 0.0000000e+00 
7.6666665e-01 6.9999999e-01 0.0000000e+00 
6.9999999e-01 7.6666665e-01 0.0000000e+00 
6.3333333e-01 8.9999998e-01 0.0000000e+00 
8.9999998e-01 6.3333333e-01 0.0000000e+00 
6.6666669e-01 8.0000001e-01 0.0000000e+00 
8.0000001e-01 6.6666669e-01 0.0000000e+00 
8.6666667e-01 6.3333333e-01 0.0000000e+00 
6.3333333e-01 8.6666667e-01 0.0000000e+00 
6.0000002e-01 1.0000000e+00 0.0000000e+00 
1.0000000e+00 6.0000002e-01 0.0000000e+00 
6.9999999e-01 7.3333335e-01 0.0000000e+00 
7.3333335e-01 6.9999999e-01 0.0000000e+00 
6.0000002e-01 9.6666664e-01 0.0000000e+00 
9.6666664e-01 6.0000002e-01 0.0000000e+00 
6.3333333e-01 8.3333331e-01 0.0000000e+00 
8.3333331e-01 6.3333333e-01 0.0000000e+00 
6.0000002e-01 9.3333334e-01 0.0000000e+00 
9.3333334e-01 6.0000002e-01 0.0000000e+00 
6.6666669e-01 7.6666665e-01 0.0000000e+00 
7.6666665e-01 6.6666669e-01 0.0000000e+00 
8.9999998e-01 6.0000002e-01 0.0000000e+00 
6.0000002e-01 8.9999998e-01 0.0000000e+00 
6.3333333e-01 8.0000001e-01 0.0000000e+00 
8.0000001e-01 6.3333333e-01 0.0000000e+00 
6.0000002e-01 8.6666667e-01 0.0000000e+00 
8.6666667e-01 6.0000002e-01 0.0000000e+00 
6.9999999e-01 6.9999999e-01 0.0000000e+00 
7.3333335e-01 6.6666669e-01 0.0000000e+00 
6.6666669e-01 7.3333335e-01 0.0000000e+00 
1.0000000e+00 5.6666666e-01 0.0000000e+00 
5.6666666e-01 1.0000000e+00 0.0000000e+00 
6.0000002e-01 8.3333331e-01 0.0000000e+00 
8.3333331e-01 6.0000002e-01 0.0000000e+00 
7.6666665e-01 6.3333333e-01 0.0000000e+00 
6.3333333e-01 7.6666665e-01 0.0000000e+00 
5.6666666e-01 9.6666664e-01 0.0000000e+00 
9.6666664e-01 5.6666666e-01 0.0000000e+00 
5.6666666e-01 9.3333334e-01 0.0000000e+00 
9.3333334e-01 5.6666666e-01 0.0000000e+00 
5.6666666e-01 8.9999998e-01 0.0000000e+00 
8.9999998e-01 5.6666666e-01 0.0000000e+00 
6.0000002e-01 8.0000001e-01 0.0000000e+00 
8.0000001e-01 6.0000002e-01 0.0000000e+00 
6.9999999e-01 6.6666669e-01 0.0000000e+00 
6.6666669e-01 6.9999999e-01 0.0000000e+00 
6.3333333e-01 7.3333335e-01 0.0000000e+00 
7.3333335e-01 6.3333333e-01 0.0000000e+00 
5.6666666e-01 8.6666667e-01 0.0000000e+00 
8.6666667e-01 5.6666666e-01 0.0000000e+00 
7.6666665e-01 6.0000002e-01 0.0000000e+00 
6.0000002e-01 7.6666665e-01 0.0000000e+00 
5.6666666e-01 8.3333331e-01 0.0000000e+00 
8.3333331e-01 5.6666666e-01 0.0000000e+00 
5.3333336e-01 1.0000000e+00 0.0000000e+00 
1.0000000e+00 5.3333336e-01 0.0000000e+00 
9.6666664e-01 5.3333336e-01 0.0000000e+00 
5.3333336e-01 9.6666664e-01 0.0000000e+00 
9.3333334e-01 5.3333336e-01 0.0000000e+00 
5.3333336e-01 9.3333334e-01 0.0000000e+00 
6.6666669e-01 6.6666669e-01 0.0000000e+00 
6.3333333e-01 6.9999999e-01 0.0000000e+00 
6.9999999e-01 6.3333333e-01 0.0000000e+00 
5.3333336e-01 8.9999998e-01 0.0000000e+00 
8.9999998e-01 5.3333336e-01 0.0000000e+00 
5.6666666e-01 8.0000001e-01 0.0000000e+00 
8.0000001e-01 5.6666666e-01 0.0000000e+00 
7.3333335e-01 6.0000002e-01 0.0000000e+00 
6.0000002e-01 7.3333335e-01 0.0000000e+00 
8.6666667e-01 5.3333336e-01 0.0000000e+00 
5.3333336e-01 8.6666667e-01 0.0000000e+00 
5.6666666e-01 7.6666665e-01 0.0000000e+00 
7.6666665e-01 5.6666666e-01 0.0000000e+00 
5.3333336e-01 8.3333331e-01 0.0000000e+00 
8.3333331e-01 5.3333336e-01 0.0000000e+00 
6.3333333e-01 6.6666669e-01 0.0000000e+00 
6.6666669e-01 6.3333333e-01 0.0000000e+00 
1.0000000e+00 5.0000000e-01 0.0000000e+00 
5.0000000e-01 1.0000000e+00 0.0000000e+00 
6.0000002e-01 6.9999999e-01 0.0000000e+00 
6.9999999e-01 6.0000002e-01 0.0000000e+00 
5.0000000e-01 9.6666664e-01 0.0000000e+00 
9.6666664e-01 5.0000000e-01 0.0000000e+00 
5.0000000e-01 9.3333334e-01 0.0000000e+00 
9.3333334e-01 5.0000000e-01 0.0000000e+00 
5.3333336e-01 8.0000001e-01 0.0000000e+00 
8.0000001e-01 5.3333336e-01 0.0000000e+00 
7.3333335e-01 5.6666666e-01 0.0000000e+00 
5.6666666e-01 7.3333335e-01 0.0000000e+00 
8.9999998e-01 5.0000000e-01 0.0000000e+00 
5.0000000e-01 8.9999998e-01 0.0000000e+00 
8.6666667e-01 5.0000000e-01 0.0000000e+00 
5.0000000e-01 8.6666667e-01 0.0000000e+00 
6.3333333e-01 6.3333333e-01 0.0000000e+00 
6.6666669e-01 6.0000002e-01 0.0000000e+00 
6.0000002e-01 6.6666669e-01 0.0000000e+00 
7.6666665e-01 5.3333336e-01 0.0000000e+00 
5.3333336e-01 7.6666665e-01 0.0000000e+00 
5.0000000e-01 8.3333331e-01 0.0000000e+00 
8.3333331e-01 5.0000000e-01 0.0000000e+00 
5.6666666e-01 6.9999999e-01 0.0000000e+00 
6.9999999e-01 5.6666666e-01 0.0000000e+00 
4.6666667e-01 1.0000000e+00 0.0000000e+00 
1.0000000e+00 4.6666667e-01 0.0000000e+00 
4.6666667e-01 9.6666664e-01 0.0000000e+00 
9.6666664e-01 4.6666667e-01 0.0000000e+00 
9.3333334e-01 4.6666667e-01 0.0000000e+00 
7.3333335e-01 5.3333336e-01 0.0000000e+00 
4.6666667e-01 9.3333334e-01 0.0000000e+00 
5.3333336e-01 7.3333335e-01 0.0000000e+00 
8.0000001e-01 5.0000000e-01 0.0000000e+00 
5.0000000e-01 8.0000001e-01 0.0000000e+00 
4.6666667e-01 8.9999998e-01 0.0000000e+00 
8.9999998e-01 4.6666667e-01 0.0000000e+00 
6.0000002e-01 6.3333333e-01 0.0000000e+00 
6.3333333e-01 6.0000002e-01 0.0000000e+00 
5.6666666e-01 6.6666669e-01 0.0000000e+00 
6.6666669e-01 5.6666666e-01 0.0000000e+00 
[...]
POINT_DATA 961
FIELD FieldData 1
TEMPERATURE 1 961  float
-1.2246469e-16
-1.0452846e-01
0.0000000e+00
-9.9679776e-02
-2.0791169e-01
0.0000000e+00
-9.4037242e-02
-1.9843429e-01
-1.8734385e-01
0.0000000e+00
-3.0901700e-01
-2.9527587e-01
-8.7860622e-02
-1.7518829e-01
-2.7911767e-01
0.0000000e+00
-4.0673664e-01
-8.1381619e-02
-3.8923663e-01
-2.6136199e-01
-3.6853683e-01
-1.6241890e-01
-5.0000000e-01
0.0000000e+00
-2.4268115e-01
-3.4572217e-01
-4.7935086e-01
-7.4758902e-02
-1.4935699e-01
-4.5475522e-01
-3.2168126e-01
-2.2355358e-01
-4.2755571e-01
0.0000000e+00
-5.8778524e-01
-6.8083525e-02
-5.6466329e-01
-5.3689605e-01
-1.3617869e-01
-3.9884120e-01
-2.9703030e-01
-2.0422426e-01
-5.0607127e-01
0.0000000e+00
-6.6913062e-01
-6.1373360e-02
-6.4423054e-01
-3.6935061e-01
-2.7206790e-01
-4.7346398e-01
-6.1404371e-01
-1.2291225e-01
-1.8471852e-01
-5.8038855e-01
-4.3992662e-01
-3.3942169e-01
-7.4314481e-01
0.0000000e+00
-5.4471505e-01
-7.1712857e-01
-5.4588702e-02
-2.4679579e-01
-1.0947008e-01
-6.8524837e-01
-4.0582263e-01
-1.6488244e-01
-6.4953661e-01
-3.0900764e-01
-5.0798595e-01
-2.2096835e-01
-6.1161226e-01
0.0000000e+00
-8.0901700e-01
-4.7652673e-02
-7.8246373e-01
-4.7057110e-01
-3.7102118e-01
-9.5690034e-02
-7.4953860e-01
-2.7773190e-01
-5.7254064e-01
-7.1247059e-01
-1.4445217e-01
-6.7303801e-01
-1.9419232e-01
-4.3224213e-01
-5.3269136e-01
-8.6602539e-01
0.0000000e+00
-3.3497176e-01
-8.3939058e-01
-4.0477604e-02
-8.0594933e-01
-8.1389718e-02
-2.4502610e-01
-6.3238758e-01
-7.6810700e-01
-1.2313651e-01
-3.9227042e-01
-4.9179724e-01
-1.6604367e-01
-7.2777575e-01
-2.9688233e-01
-5.9092200e-01
0.0000000e+00
-9.1354543e-01
-3.2989532e-02
-8.8713342e-01
-6.6415884e-02
-8.5355741e-01
-6.8616569e-01
-2.1030878e-01
-4.4894382e-01
-3.4951302e-01
-5.4839253e-01
-8.1537217e-01
-1.0069527e-01
-6.4373052e-01
-2.5596148e-01
-1.3618810e-01
-7.7459419e-01
-9.5105654e-01
0.0000000e+00
-5.0385392e-01
-4.0250275e-01
-9.2501038e-01
-2.5148852e-02
-7.3249131e-01
-1.7315857e-01
-8.9152205e-01
-5.0689008e-02
-6.0017926e-01
-3.0275118e-01
-7.7006422e-02
-8.5326803e-01
-6.8950975e-01
-2.1175174e-01
-8.1234550e-01
-1.0444801e-01
-4.5600569e-01
-3.4993252e-01
-5.5465376e-01
0.0000000e+00
-9.7814763e-01
-7.7005804e-01
-1.3330488e-01
-2.5189650e-01
-6.4524084e-01
-9.5245677e-01
-1.6966484e-02
-9.1912836e-01
-3.4233425e-02
-8.8093197e-01
-5.2105952e-02
-7.2681725e-01
-1.6385637e-01
-3.9597076e-01
-5.0380343e-01
-5.9853369e-01
-2.9287112e-01
-8.4002095e-01
-7.0865743e-02
-1.9666660e-01
-6.8227369e-01
-7.9770797e-01
-9.0753801e-02
-9.9452192e-01
0.0000000e+00
-8.5085146e-03
-9.6904814e-01
-1.7184420e-02
-9.3582559e-01
-4.4420388e-01
-5.4587531e-01
-3.3297417e-01
-8.9768624e-01
-2.6213761e-02
-7.5430655e-01
-1.1183482e-01
-2.2995913e-01
-6.3445216e-01
-3.5817146e-02
-8.5683388e-01
-7.0902193e-01
-1.3376856e-01
-8.1463820e-01
-4.6251055e-02
-4.8566097e-01
-3.7206283e-01
0.0000000e+00
-1.0000000e+00
-5.8165836e-01
-2.6361638e-01
-9.7452039e-01
1.0861129e-04
-9.4126010e-01
2.2051983e-04
-7.7139509e-01
-5.7489350e-02
-1.5921088e-01
-6.6101724e-01
3.0629520e-04
-9.0307599e-01
2.3209864e-04
-8.6222017e-01
0.0000000e+00
0.0000000e+00
0.0000000e+00
-6.7288049e-02
-7.2609723e-01
-8.2015520e-01
-4.5914948e-04
-6.0813117e-01
-1.8654996e-01
-9.9452192e-01
0.0000000e+00
-9.6878707e-01
8.7251384e-03
1.7647604e-02
-8.2818195e-02
-9.3531090e-01
-6.7846614e-01
-3.6971469e-03
-7.7747428e-01
-8.9692724e-01
2.6959457e-02
0.0000000e+00
0.0000000e+00
0.0000000e+00
0.0000000e+00
-8.5588199e-01
3.6884252e-02
-1.8002663e-02
-7.3440856e-01
0.0000000e+00
0.0000000e+00
-8.1358749e-01
4.7834653e-02
0.0000000e+00
0.0000000e+00
-9.7814763e-01
-2.5675606e-02
-6.8782282e-01
1.7159509e-02
-9.5195031e-01
0.0000000e+00
0.0000000e+00
-7.7056873e-01
6.1135050e-02
-9.1812199e-01
3.4677096e-02
0.0000000e+00
0.0000000e+00
-8.7943184e-01
5.2907705e-02
-7.2650760e-01
-8.3806443e-01
7.2240777e-02
8.3045244e-02
0.0000000e+00
0.0000000e+00
0.0000000e+00
0.0000000e+00
-7.9533917e-01
9.3142405e-02
0.0000000e+00
0.0000000e+00
9.1623351e-02
-6.7983860e-01
0.0000000e+00
-9.5105654e-01
1.1634326e-01
-9.2429477e-01
2.5273398e-02
-7.5157756e-01
0.0000000e+00
0.0000000e+00
5.1004235e-02
-8.9008856e-01
7.7632099e-02
-8.5111290e-01
0.0000000e+00
0.0000000e+00
1.4230457e-01
-7.0571417e-01
0.0000000e+00
1.0558377e-01
-8.0947363e-01
0.0000000e+00
0.0000000e+00
0.0000000e+00
0.0000000e+00
1.3526022e-01
-7.6648301e-01
-6.5850818e-01
1.6563563e-01
0.0000000e+00
0.0000000e+00
1.6695352e-01
-7.2250366e-01
-9.1354543e-01
0.0000000e+00
3.3002555e-02
-8.8626599e-01
0.0000000e+00
0.0000000e+00
6.6496536e-02
-8.5180783e-01
0.0000000e+00
0.0000000e+00
0.0000000e+00
0.0000000e+00
1.0094089e-01
-8.1272554e-01
2.0052065e-01
-6.7701346e-01
-7.7103841e-01
1.3674267e-01
0.0000000e+00
0.0000000e+00
-7.2803867e-01
1.7423323e-01
-6.2924618e-01
2.3438284e-01
0.0000000e+00
0.0000000e+00
0.0000000e+00
0.0000000e+00
0.0000000e+00
2.1360426e-01
-6.8410444e-01
0.0000000e+00
0.0000000e+00
-8.6602539e-01
0.0000000e+00
4.0356729e-02
-8.3844399e-01
-8.0402917e-01
8.1178442e-02
-5.7688737e-01
2.6708868e-01
-7.6519090e-01
1.2288731e-01
2.5496131e-01
-6.3883018e-01
0.0000000e+00
0.0000000e+00
-7.2385126e-01
1.6582796e-01
0.0000000e+00
0.0000000e+00
0.0000000e+00
0.0000000e+00
2.9876867e-01
2.1021995e-01
-6.8125790e-01
-5.9092391e-01
0.0000000e+00
0.0000000e+00
0.0000000e+00
0.0000000e+00
-6.3786548e-01
2.5610110e-01
0.0000000e+00
-8.0901700e-01
4.7404692e-02
-7.8151608e-01
3.3877856e-01
-5.3954571e-01
-7.4760437e-01
0.0000000e+00
9.5195465e-02
0.0000000e+00
-5.9334105e-01
3.0324060e-01
1.4371333e-01
-7.0952493e-01
0.0000000e+00
0.0000000e+00
0.0000000e+00
-6.6908509e-01
1.9320685e-01
0.0000000e+00
0.0000000e+00
0.0000000e+00
0.0000000e+00
-5.4671967e-01
3.5096449e-01
-6.2748438e-01
2.4377511e-01
0.0000000e+00
0.0000000e+00
-5.8520615e-01
2.9530522e-01
0.0000000e+00
3.9718041e-01
0.0000000e+00
-4.9674469e-01
0.0000000e+00
0.0000000e+00
-7.4314481e-01
0.0000000e+00
0.0000000e+00
5.4247674e-02
-7.1625143e-01
0.0000000e+00
1.0876061e-01
-6.8344355e-01
-5.4203045e-01
3.4737790e-01
-6.4677662e-01
1.6376352e-01
0.0000000e+00
0.0000000e+00
-4.4124895e-01
4.4124883e-01
2.1938530e-01
-6.0792285e-01
0.0000000e+00
-4.9716592e-01
3.9919153e-01
0.0000000e+00
2.7560163e-01
-5.6801981e-01
0.0000000e+00
0.0000000e+00
0.0000000e+00
0.0000000e+00
-5.2756393e-01
0.0000000e+00
3.3217302e-01
0.0000000e+00
0.0000000e+00
-4.4937518e-01
4.4937447e-01
-6.6913062e-01
0.0000000e+00
-6.4347953e-01
6.0993128e-02
0.0000000e+00
0.0000000e+00
1.2209644e-01
-6.1247897e-01
3.8858622e-01
-4.8644096e-01
-5.7797742e-01
1.8339491e-01
4.9674580e-01
-3.9718232e-01
0.0000000e+00
0.0000000e+00
2.4487990e-01
0.0000000e+00
-5.4149258e-01
0.0000000e+00
4.4397220e-01
-4.4397560e-01
0.0000000e+00
0.0000000e+00
-5.0408006e-01
3.0640024e-01
0.0000000e+00
0.0000000e+00
-3.3877581e-01
5.3954834e-01
3.6760753e-01
-4.6623614e-01
4.9716565e-01
-3.9919421e-01
0.0000000e+00
0.0000000e+00
0.0000000e+00
-5.8778524e-01
6.7720018e-02
-5.6407273e-01
4.2790839e-01
0.0000000e+00
-4.2791519e-01
0.0000000e+00
0.0000000e+00
1.3537428e-01
-5.3563863e-01
5.4672611e-01
-3.5096729e-01
5.7689399e-01
-2.6708642e-01
-5.0410652e-01
2.0288503e-01
0.0000000e+00
0.0000000e+00
2.7009657e-01
-4.7082135e-01
4.8643571e-01
-3.8859165e-01
0.0000000e+00
0.0000000e+00
3.3672604e-01
-4.3673667e-01
-2.9877084e-01
5.9094113e-01
5.4202884e-01
0.0000000e+00
0.0000000e+00
-3.4738207e-01
4.0232247e-01
-4.0233046e-01
0.0000000e+00
0.0000000e+00
0.0000000e+00
0.0000000e+00
0.0000000e+00
0.0000000e+00
-5.0000000e-01
0.0000000e+00
4.6622795e-01
-3.6761463e-01
7.4463561e-02
-4.7893330e-01
-2.3438483e-01
6.2926996e-01
-3.0324420e-01
5.9334511e-01
1.4866607e-01
-4.5382947e-01
2.2236368e-01
-4.2607087e-01
0.0000000e+00
0.0000000e+00
-3.3217901e-01
5.2755678e-01
2.9523990e-01
-3.9681208e-01
0.0000000e+00
0.0000000e+00
0.0000000e+00
-3.6688626e-01
-2.5496525e-01
6.3884580e-01
3.6687905e-01
-1.6564026e-01
6.5857124e-01
0.0000000e+00
0.0000000e+00
-2.9531017e-01
5.8520162e-01
4.3672824e-01
-3.3673304e-01
0.0000000e+00
0.0000000e+00
-2.0052513e-01
6.7704159e-01
5.0407094e-01
-3.0640665e-01
-4.0673664e-01
0.0000000e+00
6.3786602e-01
-2.5610530e-01
-3.8898495e-01
8.1181914e-02
-9.1623172e-02
6.8041068e-01
-3.6792946e-01
1.6190863e-01
0.0000000e+00
0.0000000e+00
-3.4469792e-01
2.4174961e-01
-2.7560723e-01
5.6801099e-01
0.0000000e+00
0.0000000e+00
3.2023311e-01
-3.2023841e-01
0.0000000e+00
0.0000000e+00
6.8411225e-01
-2.1360829e-01
-1.4231087e-01
7.0577049e-01
-2.9524556e-01
3.9680526e-01
6.2747711e-01
-2.4377985e-01
6.8697298e-01
2.5675358e-02
4.7081318e-01
-2.7010217e-01
7.2252768e-01
-1.6695768e-01
0.0000000e+00
0.0000000e+00
0.0000000e+00
7.2707564e-01
6.8125379e-01
-8.3046220e-02
5.4148346e-01
-2.4488513e-01
-2.1022397e-01
0.0000000e+00
-3.0901700e-01
1.8654966e-01
8.7770090e-02
-2.9516593e-01
6.0816002e-01
-2.7878648e-01
1.7488170e-01
-2.6074016e-01
2.6073694e-01
6.7856562e-01
-2.1938992e-01
8.2817964e-02
6.0791337e-01
3.4469342e-01
-1.1634683e-01
-2.4175343e-01
7.5162047e-01
-1.7423680e-01
7.2803950e-01
7.3365664e-01
1.8001765e-02
-2.2236779e-01
4.2606506e-01
-1.9321080e-01
6.6907620e-01
3.7206224e-01
4.8565012e-01
5.8165425e-01
2.6361597e-01
-2.0288914e-01
5.0409943e-01
-1.3526350e-01
7.6648998e-01
7.7067941e-01
-6.1136600e-02
1.5921073e-01
6.6106778e-01
-1.6583127e-01
7.2384393e-01
5.7796925e-01
-1.8339875e-01
-2.0791169e-01
0.0000000e+00
7.2617245e-01
9.4030574e-02
-1.9842562e-01
6.7287743e-02
1.8722062e-01
-1.8722209e-01
-1.7488374e-01
-1.6376695e-01
6.4676791e-01
2.7878416e-01
-9.3145058e-02
7.9535675e-01
7.7103370e-01
-1.3674545e-01
-1.6191107e-01
4.4420299e-01
3.6792621e-01
7.7729481e-01
3.6964780e-03
5.4586297e-01
3.3297420e-01
6.3446236e-01
2.2995891e-01
-1.4866871e-01
4.5382524e-01
-1.4371626e-01
7.0951617e-01
7.0907307e-01
1.3376832e-01
5.3563339e-01
-1.3537692e-01
8.0947173e-01
-1.0558610e-01
8.1360084e-01
-4.7836084e-02
7.6518273e-01
-1.2288974e-01
7.7136964e-01
5.7489075e-02
-1.2209894e-01
6.1247289e-01
0.0000000e+00
-1.0452846e-01
5.0379831e-01
3.9597204e-01
9.9719577e-02
-9.9719949e-02
5.9852892e-01
-9.4031289e-02
1.9842485e-01
2.9287189e-01
8.3806419e-01
-7.2242558e-02
-1.0876283e-01
6.8343687e-01
2.9516473e-01
-8.7771080e-02
8.2010466e-01
4.5850029e-04
8.1271845e-01
-1.0094286e-01
6.8229347e-01
1.9666709e-01
3.8898325e-01
-8.1183098e-02
1.1183471e-01
7.5431317e-01
7.4759746e-01
-9.5197357e-02
-7.4464843e-02
4.7893107e-01
8.5587835e-01
-3.6885332e-02
-7.7633642e-02
8.5110718e-01
-6.7721307e-02
5.6406993e-01
8.1461793e-01
4.6250723e-02
4.5600811e-01
5.5464667e-01
8.0402237e-01
3.4993377e-01
-8.1179991e-02
2.5189704e-01
-6.0994342e-02
6.4347631e-01
6.4524561e-01
8.7942666e-01
-5.2908827e-02
1.6385657e-01
-0.0000000e+00
1.2246469e-16
7.2682297e-01
0.0000000e+00
1.0452846e-01
-2.3266458e-04
8.6220217e-01
2.0791169e-01
0.0000000e+00
-5.4248758e-02
7.1624786e-01
-6.6497758e-02
8.5180151e-01
0.0000000e+00
3.0901700e-01
9.0753697e-02
7.9770124e-01
0.0000000e+00
4.0673664e-01
7.8151226e-01
-4.7405612e-02
5.0000000e-01
0.0000000e+00
-2.6960157e-02
8.9692068e-01
5.0385368e-01
4.0250421e-01
-5.1005159e-02
8.9008278e-01
6.0018021e-01
3.0275199e-01
8.5682029e-01
3.5816871e-02
0.0000000e+00
5.8778524e-01
6.8951428e-01
2.1175212e-01
-4.0357478e-02
8.3844018e-01
7.7005875e-01
0.0000000e+00
1.3330498e-01
6.6913062e-01
-3.4677751e-02
9.1811663e-01
-3.0668048e-04
9.0306616e-01
-3.3003137e-02
8.8626236e-01
7.4314481e-01
0.0000000e+00
7.0865661e-02
8.4001529e-01
4.4894493e-01
5.4839402e-01
3.4951404e-01
6.4373332e-01
2.5596207e-01
9.3530554e-01
-1.7648015e-02
0.0000000e+00
8.0901700e-01
8.9767867e-01
9.2429137e-01
-2.5273830e-02
2.6213579e-02
1.7315884e-01
7.3249412e-01
1.0444807e-01
8.1234545e-01
8.6602539e-01
0.0000000e+00
9.4125456e-01
-2.2075095e-04
9.5194715e-01
-1.7159808e-02
3.9227161e-01
4.9179888e-01
2.9688320e-01
5.9092426e-01
5.2105904e-02
8.8092870e-01
0.0000000e+00
9.1354543e-01
6.8616784e-01
2.1030924e-01
-8.7253256e-03
9.6878415e-01
7.7459520e-01
1.3618830e-01
9.3582159e-01
1.7184313e-02
9.5105654e-01
0.0000000e+00
7.7006482e-02
8.5326713e-01
4.3224370e-01
5.3269345e-01
3.3497286e-01
9.7451776e-01
-1.0871451e-04
6.3238996e-01
2.4502675e-01
0.0000000e+00
9.7814763e-01
3.4233406e-02
9.1912621e-01
1.6604401e-01
7.2777748e-01
8.1537259e-01
1.0069544e-01
0.0000000e+00
9.9452192e-01
9.6904624e-01
8.5084708e-03
4.7057298e-01
3.7102249e-01
8.9152139e-01
5.0689060e-02
2.7773273e-01
5.7254291e-01
6.7304033e-01
1.9419281e-01
0.0000000e+00
1.0000000e+00
1.2313676e-01
7.6810861e-01
1.6966483e-02
9.5245576e-01
8.5355800e-01
6.6415995e-02
4.0582410e-01
3.0900866e-01
5.0798786e-01
9.9452192e-01
0.0000000e+00
6.1161435e-01
2.2096898e-01
2.5148882e-02
9.2501020e-01
7.1247244e-01
1.4445253e-01
8.0595058e-01
8.1389882e-02
0.0000000e+00
9.7814763e-01
4.3992808e-01
3.3942279e-01
8.8713384e-01
3.2989588e-02
5.4471678e-01
2.4679652e-01
1.6488287e-01
6.4953828e-01
9.5105654e-01
0.0000000e+00
7.4953985e-01
9.5690250e-02
4.0477686e-02
8.3939111e-01
3.6935171e-01
2.7206871e-01
4.7346535e-01
5.8038998e-01
1.8471901e-01
0.0000000e+00
9.1354543e-01
1.0947035e-01
6.8524957e-01
4.7652777e-02
7.8246439e-01
8.6602539e-01
0.0000000e+00
2.9703110e-01
3.9884222e-01
5.0607240e-01
2.0422480e-01
1.2291256e-01
6.1404479e-01
7.1712917e-01
5.4588832e-02
8.0901700e-01
0.0000000e+00
3.2168201e-01
4.2755657e-01
2.2355410e-01
1.3617902e-01
5.3689682e-01
6.1373509e-02
6.4423108e-01
7.4314481e-01
0.0000000e+00
3.4572276e-01
2.4268162e-01
1.4935732e-01
4.5475581e-01
6.8083681e-02
5.6466371e-01
6.6913062e-01
0.0000000e+00
2.6136237e-01
3.6853725e-01
1.6241920e-01
4.7935116e-01
7.4759059e-02
5.8778524e-01
0.0000000e+00
2.7911794e-01
1.7518853e-01
8.1381753e-02
3.8923684e-01
5.0000000e-01
0.0000000e+00
1.8734401e-01
8.7860733e-02
2.9527602e-01
4.0673664e-01
0.0000000e+00
1.9843438e-01
9.4037324e-02
0.0000000e+00
3.0901700e-01
9.9679820e-02
0.0000000e+00
2.0791169e-01
0.0000000e+00
1.0452846e-01
0.0000000e+00
CELL_DATA 1800
FIELD FieldData 0
