# vtk DataFile Version 4.0
vtk output
ASCII
DATASET UNSTRUCTURED_GRID
POINTS 2601 float
0.0000000e+00 0.0000000e+00 0.0000000e+00 
0.0000000e+00 2.0000000e-02 0.0000000e+00 
2.0000000e-02 0.0000000e+00 0.0000000e+00 
2.0000000e-02 2.0000000e-02 0.0000000e+00 
3.9999999e-02 0.0000000e+00 0.0000000e+00 
0.0000000e+00 3.9999999e-02 0.0000000e+00 
3.9999999e-02 2.0000000e-02 0.0000000e+00 
2.0000000e-02 3.9999999e-02 0.0000000e+00 
3.9999999e-02 3.9999999e-02 0.0000000e+00 
5.9999999e-02 0.0000000e+00 0.0000000e+00 
0.0000000e+00 5.9999999e-02 0.0000000e+00 
5.9999999e-02 2.0000000e-02 0.0000000e+00 
2.0000000e-02 5.9999999e-02 0.0000000e+00 
3.9999999e-02 5.9999999e-02 0.0000000e+00 
5.9999999e-02 3.9999999e-02 0.0000000e+00 
7.9999998e-02 0.0000000e+00 0.0000000e+00 
0.0000000e+00 7.9999998e-02 0.0000000e+00 
7.9999998e-02 2.0000000e-02 0.0000000e+00 
2.0000000e-02 7.9999998e-02 0.0000000e+00 
5.9999999e-02 5.9999999e-02 0.0000000e+00 
7.9999998e-02 3.9999999e-02 0.0000000e+00 
3.9999999e-02 7.9999998e-02 0.0000000e+00 
5.9999999e-02 7.9999998e-02 0.0000000e+00 
7.9999998e-02 5.9999999e-02 0.0000000e+00 
1.0000000e-01 0.0000000e+00 0.0000000e+00 
0.0000000e+00 1.0000000e-01 0.0000000e+00 
1.0000000e-01 2.0000000e-02 0.0000000e+00 
2.0000000e-02 1.0000000e-01 0.0000000e+00 
3.9999999e-02 1.0000000e-01 0.0000000e+00 
1.0000000e-01 3.9999999e-02 0.0000000e+00 
7.9999998e-02 7.9999998e-02 0.0000000e+00 
1.0000000e-01 5.9999999e-02 0.0000000e+00 
5.9999999e-02 1.0000000e-01 0.0000000e+00 
1.2000000e-01 0.0000000e+00 0.0000000e+00 
0.0000000e+00 1.2000000e-01 0.0000000e+00 
1.2000000e-01 2.0000000e-02 0.0000000e+00 
2.0000000e-02 1.2000000e-01 0.0000000e+00 
1.2000000e-01 3.9999999e-02 0.0000000e+00 
3.9999999e-02 1.2000000e-01 0.0000000e+00 
1.0000000e-01 7.9999998e-02 0.0000000e+00 
7.9999998e-02 1.0000000e-01 0.0000000e+00 
1.2000000e-01 5.9999999e-02 0.0000000e+00 
5.9999999e-02 1.2000000e-01 0.0000000e+00 
0.0000000e+00 1.4000000e-01 0.0000000e+00 
1.4000000e-01 0.0000000e+00 0.0000000e+00 
1.0000000e-01 1.0000000e-01 0.0000000e+00 
2.0000000e-02 1.4000000e-01 0.0000000e+00 
1.4000000e-01 2.0000000e-02 0.0000000e+00 
1.2000000e-01 7.9999998e-02 0.0000000e+00 
7.9999998e-02 1.2000000e-01 0.0000000e+00 
3.9999999e-02 1.4000000e-01 0.0000000e+00 
1.4000000e-01 3.9999999e-02 0.0000000e+00 
1.4000000e-01 5.9999999e-02 0.0000000e+00 
5.9999999e-02 1.4000000e-01 0.0000000e+00 
1.2000000e-01 1.0000000e-01 0.0000000e+00 
1.0000000e-01 1.2000000e-01 0.0000000e+00 
1.6000000e-01 0.0000000e+00 0.0000000e+00 
0.0000000e+00 1.6000000e-01 0.0000000e+00 
1.6000000e-01 2.0000000e-02 0.0000000e+00 
7.9999998e-02 1.4000000e-01 0.0000000e+00 
2.0000000e-02 1.6000000e-01 0.0000000e+00 
1.4000000e-01 7.9999998e-02 0.0000000e+00 
1.6000000e-01 3.9999999e-02 0.0000000e+00 
3.9999999e-02 1.6000000e-01 0.0000000e+00 
1.2000000e-01 1.2000000e-01 0.0000000e+00 
1.6000000e-01 5.9999999e-02 0.0000000e+00 
5.9999999e-02 1.6000000e-01 0.0000000e+00 
1.0000000e-01 1.4000000e-01 0.0000000e+00 
1.4000000e-01 1.0000000e-01 0.0000000e+00 
1.6000000e-01 7.9999998e-02 0.0000000e+00 
7.9999998e-02 1.6000000e-01 0.0000000e+00 
0.0000000e+00 1.8000001e-01 0.0000000e+00 
1.8000001e-01 0.0000000e+00 0.0000000e+00 
1.8000001e-01 2.0000000e-02 0.0000000e+00 
2.0000000e-02 1.8000001e-01 0.0000000e+00 
3.9999999e-02 1.8000001e-01 0.0000000e+00 
1.8000001e-01 3.9999999e-02 0.0000000e+00 
1.2000000e-01 1.4000000e-01 0.0000000e+00 
1.4000000e-01 1.2000000e-01 0.0000000e+00 
1.0000000e-01 1.6000000e-01 0.0000000e+00 
1.6000000e-01 1.0000000e-01 0.0000000e+00 
1.8000001e-01 5.9999999e-02 0.0000000e+00 
5.9999999e-02 1.8000001e-01 0.0000000e+00 
7.9999998e-02 1.8000001e-01 0.0000000e+00 
1.8000001e-01 7.9999998e-02 0.0000000e+00 
1.4000000e-01 1.4000000e-01 0.0000000e+00 
1.2000000e-01 1.6000000e-01 0.0000000e+00 
1.6000000e-01 1.2000000e-01 0.0000000e+00 
0.0000000e+00 2.0000000e-01 0.0000000e+00 
2.0000000e-01 0.0000000e+00 0.0000000e+00 
2.0000000e-01 2.0000000e-02 0.0000000e+00 
2.0000000e-02 2.0000000e-01 0.0000000e+00 
2.0000000e-01 3.9999999e-02 0.0000000e+00 
3.9999999e-02 2.0000000e-01 0.0000000e+00 
1.0000000e-01 1.8000001e-01 0.0000000e+00 
1.8000001e-01 1.0000000e-01 0.0000000e+00 
2.0000000e-01 5.9999999e-02 0.0000000e+00 
5.9999999e-02 2.0000000e-01 0.0000000e+00 
1.4000000e-01 1.6000000e-01 0.0000000e+00 
1.6000000e-01 1.4000000e-01 0.0000000e+00 
2.0000000e-01 7.9999998e-02 0.0000000e+00 
7.9999998e-02 2.0000000e-01 0.0000000e+00 
1.8000001e-01 1.2000000e-01 0.0000000e+00 
1.2000000e-01 1.8000001e-01 0.0000000e+00 
2.2000000e-01 0.0000000e+00 0.0000000e+00 
0.0000000e+00 2.2000000e-01 0.0000000e+00 
2.2000000e-01 2.0000000e-02 0.0000000e+00 
2.0000000e-02 2.2000000e-01 0.0000000e+00 
2.2000000e-01 3.9999999e-02 0.0000000e+00 
3.9999999e-02 2.2000000e-01 0.0000000e+00 
1.0000000e-01 2.0000000e-01 0.0000000e+00 
2.0000000e-01 1.0000000e-01 0.0000000e+00 
1.6000000e-01 1.6000000e-01 0.0000000e+00 
2.2000000e-01 5.9999999e-02 0.0000000e+00 
5.9999999e-02 2.2000000e-01 0.0000000e+00 
1.8000001e-01 1.4000000e-01 0.0000000e+00 
1.4000000e-01 1.8000001e-01 0.0000000e+00 
2.0000000e-01 1.2000000e-01 0.0000000e+00 
1.2000000e-01 2.0000000e-01 0.0000000e+00 
7.9999998e-02 2.2000000e-01 0.0000000e+00 
2.2000000e-01 7.9999998e-02 0.0000000e+00 
2.3999999e-01 0.0000000e+00 0.0000000e+00 
0.0000000e+00 2.3999999e-01 0.0000000e+00 
2.3999999e-01 2.0000000e-02 0.0000000e+00 
1.8000001e-01 1.6000000e-01 0.0000000e+00 
1.6000000e-01 1.8000001e-01 0.0000000e+00 
2.0000000e-02 2.3999999e-01 0.0000000e+00 
2.2000000e-01 1.0000000e-01 0.0000000e+00 
1.0000000e-01 2.2000000e-01 0.0000000e+00 
3.9999999e-02 2.3999999e-01 0.0000000e+00 
2.3999999e-01 3.9999999e-02 0.0000000e+00 
1.4000000e-01 2.0000000e-01 0.0000000e+00 
2.0000000e-01 1.4000000e-01 0.0000000e+00 
2.3999999e-01 5.9999999e-02 0.0000000e+00 
5.9999999e-02 2.3999999e-01 0.0000000e+00 
2.2000000e-01 1.2000000e-01 0.0000000e+00 
1.2000000e-01 2.2000000e-01 0.0000000e+00 
7.9999998e-02 2.3999999e-01 0.0000000e+00 
2.3999999e-01 7.9999998e-02 0.0000000e+00 
1.8000001e-01 1.8000001e-01 0.0000000e+00 
2.0000000e-01 1.6000000e-01 0.0000000e+00 
1.6000000e-01 2.0000000e-01 0.0000000e+00 
1.0000000e-01 2.3999999e-01 0.0000000e+00 
2.3999999e-01 1.0000000e-01 0.0000000e+00 
0.0000000e+00 2.5999999e-01 0.0000000e+00 
2.5999999e-01 0.0000000e+00 0.0000000e+00 
1.4000000e-01 2.2000000e-01 0.0000000e+00 
2.2000000e-01 1.4000000e-01 0.0000000e+00 
2.0000000e-02 2.5999999e-01 0.0000000e+00 
2.5999999e-01 2.0000000e-02 0.0000000e+00 
3.9999999e-02 2.5999999e-01 0.0000000e+00 
2.5999999e-01 3.9999999e-02 0.0000000e+00 
5.9999999e-02 2.5999999e-01 0.0000000e+00 
2.5999999e-01 5.9999999e-02 0.0000000e+00 
2.3999999e-01 1.2000000e-01 0.0000000e+00 
1.2000000e-01 2.3999999e-01 0.0000000e+00 
1.8000001e-01 2.0000000e-01 0.0000000e+00 
2.0000000e-01 1.8000001e-01 0.0000000e+00 
2.2000000e-01 1.6000000e-01 0.0000000e+00 
7.9999998e-02 2.5999999e-01 0.0000000e+00 
2.5999999e-01 7.9999998e-02 0.0000000e+00 
1.6000000e-01 2.2000000e-01 0.0000000e+00 
2.3999999e-01 1.4000000e-01 0.0000000e+00 
1.4000000e-01 2.3999999e-01 0.0000000e+00 
1.0000000e-01 2.5999999e-01 0.0000000e+00 
2.5999999e-01 1.0000000e-01 0.0000000e+00 
2.8000000e-01 0.0000000e+00 0.0000000e+00 
0.0000000e+00 2.8000000e-01 0.0000000e+00 
2.0000000e-02 2.8000000e-01 0.0000000e+00 
2.8000000e-01 2.0000000e-02 0.0000000e+00 
2.8000000e-01 3.9999999e-02 0.0000000e+00 
3.9999999e-02 2.8000000e-01 0.0000000e+00 
2.0000000e-01 2.0000000e-01 0.0000000e+00 
1.8000001e-01 2.2000000e-01 0.0000000e+00 
2.2000000e-01 1.8000001e-01 0.0000000e+00 
2.8000000e-01 5.9999999e-02 0.0000000e+00 
2.5999999e-01 1.2000000e-01 0.0000000e+00 
1.2000000e-01 2.5999999e-01 0.0000000e+00 
5.9999999e-02 2.8000000e-01 0.0000000e+00 
2.3999999e-01 1.6000000e-01 0.0000000e+00 
1.6000000e-01 2.3999999e-01 0.0000000e+00 
7.9999998e-02 2.8000000e-01 0.0000000e+00 
2.8000000e-01 7.9999998e-02 0.0000000e+00 
1.4000000e-01 2.5999999e-01 0.0000000e+00 
2.5999999e-01 1.4000000e-01 0.0000000e+00 
2.2000000e-01 2.0000000e-01 0.0000000e+00 
1.0000000e-01 2.8000000e-01 0.0000000e+00 
2.0000000e-01 2.2000000e-01 0.0000000e+00 
2.8000000e-01 1.0000000e-01 0.0000000e+00 
1.8000001e-01 2.3999999e-01 0.0000000e+00 
3.0000001e-01 0.0000000e+00 0.0000000e+00 
2.3999999e-01 1.8000001e-01 0.0000000e+00 
0.0000000e+00 3.0000001e-01 0.0000000e+00 
3.0000001e-01 2.0000000e-02 0.0000000e+00 
2.0000000e-02 3.0000001e-01 0.0000000e+00 
3.9999999e-02 3.0000001e-01 0.0000000e+00 
3.0000001e-01 3.9999999e-02 0.0000000e+00 
1.2000000e-01 2.8000000e-01 0.0000000e+00 
2.8000000e-01 1.2000000e-01 0.0000000e+00 
1.6000000e-01 2.5999999e-01 0.0000000e+00 
2.5999999e-01 1.6000000e-01 0.0000000e+00 
5.9999999e-02 3.0000001e-01 0.0000000e+00 
3.0000001e-01 5.9999999e-02 0.0000000e+00 
7.9999998e-02 3.0000001e-01 0.0000000e+00 
3.0000001e-01 7.9999998e-02 0.0000000e+00 
2.2000000e-01 2.2000000e-01 0.0000000e+00 
2.3999999e-01 2.0000000e-01 0.0000000e+00 
2.0000000e-01 2.3999999e-01 0.0000000e+00 
1.4000000e-01 2.8000000e-01 0.0000000e+00 
2.8000000e-01 1.4000000e-01 0.0000000e+00 
1.0000000e-01 3.0000001e-01 0.0000000e+00 
2.5999999e-01 1.8000001e-01 0.0000000e+00 
1.8000001e-01 2.5999999e-01 0.0000000e+00 
3.0000001e-01 1.0000000e-01 0.0000000e+00 
0.0000000e+00 3.1999999e-01 0.0000000e+00 
3.1999999e-01 0.0000000e+00 0.0000000e+00 
2.0000000e-02 3.1999999e-01 0.0000000e+00 
3.1999999e-01 2.0000000e-02 0.0000000e+00 
3.9999999e-02 3.1999999e-01 0.0000000e+00 
1.6000000e-01 2.8000000e-01 0.0000000e+00 
3.1999999e-01 3.9999999e-02 0.0000000e+00 
2.8000000e-01 1.6000000e-01 0.0000000e+00 
1.2000000e-01 3.0000001e-01 0.0000000e+00 
3.0000001e-01 1.2000000e-01 0.0000000e+00 
2.2000000e-01 2.3999999e-01 0.0000000e+00 
5.9999999e-02 3.1999999e-01 0.0000000e+00 
2.3999999e-01 2.2000000e-01 0.0000000e+00 
3.1999999e-01 5.9999999e-02 0.0000000e+00 
2.0000000e-01 2.5999999e-01 0.0000000e+00 
2.5999999e-01 2.0000000e-01 0.0000000e+00 
[...]
POINT_DATA 2601
FIELD FieldData 1
TEMPERATURE 1 2601  float
-0.0000000e+00
0.0000000e+00
-4.4399600e-02
-4.4826247e-02
-8.8623978e-02
0.0000000e+00
-8.9475632e-02
-4.4806458e-02
-8.9435980e-02
-1.3249859e-01
0.0000000e+00
-1.3377301e-01
-4.4557128e-02
-8.8938117e-02
-1.3371471e-01
-1.7585030e-01
0.0000000e+00
-1.7754455e-01
-4.4073395e-02
-1.3297126e-01
-1.7746979e-01
-8.7972336e-02
-1.3152809e-01
-1.7648558e-01
-2.1850801e-01
0.0000000e+00
-2.2061822e-01
-4.3370262e-02
-8.6568549e-02
-2.2053009e-01
-1.7457251e-01
-2.1931165e-01
-1.2942994e-01
-2.6030338e-01
0.0000000e+00
-2.6282462e-01
-4.2460188e-02
-2.6272681e-01
-8.4751636e-02
-2.1693866e-01
-1.7178984e-01
-2.6128212e-01
-1.2671393e-01
0.0000000e+00
-3.0107144e-01
-2.1348460e-01
-4.1355841e-02
-3.0399758e-01
-2.5846142e-01
-1.6818678e-01
-8.2546853e-02
-3.0389413e-01
-3.0223233e-01
-1.2341782e-01
-2.5435215e-01
-2.0901053e-01
-3.4065130e-01
0.0000000e+00
-3.4397474e-01
-1.6381337e-01
-4.0069323e-02
-2.9897824e-01
-3.4386995e-01
-7.9978362e-02
-2.4902675e-01
-3.4200114e-01
-1.1957767e-01
-2.0357840e-01
-2.9423258e-01
-3.3832955e-01
-1.5871732e-01
0.0000000e+00
-3.7888676e-01
-3.8259837e-01
-3.8612053e-02
-7.7068940e-02
-3.8249639e-01
-2.4255876e-01
-2.8807881e-01
-1.9724740e-01
-3.3296874e-01
-3.8043138e-01
-1.1522748e-01
-1.5294375e-01
-3.7635970e-01
-2.8060162e-01
-2.3501843e-01
-3.2601252e-01
0.0000000e+00
-4.1562694e-01
-4.1971579e-01
-3.6994744e-02
-4.1962054e-01
-7.3839948e-02
-1.9007340e-01
-3.7040690e-01
-4.1737062e-01
-1.1039919e-01
-2.7188188e-01
-3.1755620e-01
-4.1291726e-01
-1.4653492e-01
-3.6267668e-01
-2.2647208e-01
-4.5072684e-01
0.0000000e+00
-4.5518014e-01
-3.5227459e-02
-4.5509514e-01
-7.0311487e-02
-1.8210880e-01
-4.0639740e-01
-3.0769059e-01
-4.5267171e-01
-1.0512280e-01
-3.5327414e-01
-2.6199582e-01
-3.9792371e-01
-2.1698196e-01
-1.3953066e-01
-4.4785598e-01
-4.8404789e-01
0.0000000e+00
-4.8885089e-01
-3.4229952e-01
-2.9650152e-01
-3.3319753e-02
-4.4079530e-01
-1.7340305e-01
-6.6502631e-02
-4.8877895e-01
-2.5101525e-01
-3.8761038e-01
-4.8619348e-01
-9.9426858e-02
-4.3161049e-01
-2.0660686e-01
-1.3196884e-01
-4.8103535e-01
-3.2984734e-01
-3.7556612e-01
-2.8406969e-01
-1.6400324e-01
-4.7346118e-01
0.0000000e+00
-5.1545864e-01
-2.3900801e-01
-4.2042378e-01
-3.1280823e-02
-5.2059454e-01
-6.2431738e-02
-5.2053773e-01
-9.3338840e-02
-5.1780152e-01
-4.6359903e-01
-1.9540296e-01
-3.1600681e-01
-3.6189348e-01
-4.0735143e-01
-1.2388603e-01
-5.1232129e-01
-2.7047169e-01
-4.5157805e-01
-2.2603919e-01
-1.5395494e-01
-5.0426191e-01
-5.4483515e-01
0.0000000e+00
-2.9119659e-02
-5.5028498e-01
-5.5024457e-01
-5.8116794e-02
-3.4668925e-01
-3.0086273e-01
-3.9250293e-01
-5.4736865e-01
-4.9375737e-01
-1.8342482e-01
-8.6885698e-02
-4.3752080e-01
-2.5578138e-01
-1.1531812e-01
-5.4158700e-01
-2.1217228e-01
-4.8094267e-01
-3.7598178e-01
-1.4330304e-01
-3.3004600e-01
-5.3307140e-01
-2.8449747e-01
-5.7206142e-01
-4.2154258e-01
0.0000000e+00
-5.7780427e-01
-2.6845209e-02
-5.3575687e-02
-5.7778060e-01
-1.7072633e-01
-5.2196068e-01
-2.4007121e-01
-4.6594524e-01
-8.0094270e-02
-5.7477576e-01
-1.0630094e-01
-5.6871361e-01
-3.5788742e-01
-4.0375236e-01
-3.1205419e-01
-1.9747044e-01
-5.0839412e-01
-1.3209239e-01
-4.4888467e-01
-2.6699257e-01
-5.5977166e-01
0.0000000e+00
-5.9702998e-01
-2.4466492e-02
-6.0304308e-01
-4.8826467e-02
-2.2341383e-01
-6.0303569e-01
-4.9250260e-01
-1.5736161e-01
-5.4809213e-01
-3.3831772e-01
-7.2991677e-02
-3.8425505e-01
-5.9991246e-01
-2.9280442e-01
-4.2987368e-01
-9.6870698e-02
-5.9359109e-01
-1.8199727e-01
-5.3381711e-01
-4.7440818e-01
-2.4843058e-01
-1.2036844e-01
-5.8425355e-01
-3.6315587e-01
-2.0588294e-01
-5.1707917e-01
0.0000000e+00
-6.1964238e-01
-2.1992719e-02
-4.0902188e-01
-3.1737301e-01
-6.2590104e-01
-1.4338553e-01
-5.7204401e-01
-4.3887563e-02
-6.2590885e-01
-4.5422596e-01
-2.7239025e-01
-6.5605573e-02
-6.2267768e-01
-8.7064378e-02
-6.1611897e-01
-5.5710578e-01
-1.6581751e-01
-2.2889638e-01
-4.9800125e-01
-3.8643771e-01
-3.4056190e-01
-1.0817761e-01
-6.0641766e-01
-2.9515669e-01
-4.3206614e-01
-1.8755391e-01
-5.3957134e-01
-6.3980937e-01
0.0000000e+00
-6.4628750e-01
-1.9433338e-02
-2.5090814e-01
-1.2885419e-01
-4.7669768e-01
-5.9371877e-01
-6.4630872e-01
-3.8777892e-02
-6.4298016e-01
-5.7964370e-02
-2.0847690e-01
-5.1956224e-01
-1.4899737e-01
-3.6224309e-01
-5.7816494e-01
-7.6919928e-02
-6.3620675e-01
-3.1659475e-01
-4.0804613e-01
-2.7178341e-01
-4.5328152e-01
-6.2617528e-01
-9.5567502e-02
-5.5988675e-01
-1.6850366e-01
-4.9719155e-01
-2.2846055e-01
-6.1303008e-01
-1.1382502e-01
-6.5745127e-01
0.0000000e+00
-6.6412157e-01
-1.6798103e-02
-3.3516947e-02
-6.6415423e-01
-3.8227037e-01
-3.3654839e-01
-4.2785448e-01
-2.9136860e-01
-6.6073900e-01
-1.8726143e-01
-5.0097331e-02
-5.3900242e-01
-5.9691161e-01
-1.3160440e-01
-2.4736498e-01
-6.5377474e-01
-4.7256413e-01
-6.6476412e-02
-8.2587048e-02
-6.4344883e-01
-5.7794636e-01
-1.4881039e-01
-2.0514929e-01
-5.1562101e-01
-3.5494816e-01
-4.0059555e-01
-3.0955958e-01
-9.8356985e-02
-6.2990355e-01
-2.6505956e-01
-6.7249852e-01
0.0000000e+00
-4.4581211e-01
-6.7933267e-01
-1.4097065e-02
-6.7937452e-01
-2.8124835e-02
-5.5624717e-01
-1.6533944e-01
-6.7588407e-01
-4.2034585e-02
-1.1370777e-01
-6.1327589e-01
-4.8984662e-01
-2.2203515e-01
-5.5773988e-02
-6.6875428e-01
-3.2601205e-01
-3.7142548e-01
-1.8107671e-01
-5.3191441e-01
-5.9368575e-01
-1.2855352e-01
-4.1691568e-01
-2.8127238e-01
-6.9286488e-02
-6.5817207e-01
-2.3775330e-01
-4.6177289e-01
-6.4427727e-01
-8.2510486e-02
-6.8489170e-01
0.0000000e+00
-6.9186062e-01
-1.1340579e-02
-1.4279990e-01
-5.7123810e-01
-6.9190967e-01
-2.2622230e-02
-1.9590895e-01
-5.0507045e-01
-9.5378146e-02
-6.2720168e-01
-6.8835610e-01
-3.4122738e-01
-3.3807084e-02
-2.9625943e-01
-3.8658002e-01
-6.8108761e-01
-4.4853821e-02
-4.3160811e-01
-2.5222781e-01
-5.4602206e-01
-1.5634389e-01
-1.0781440e-01
-6.0705858e-01
-5.5717167e-02
-6.7029047e-01
-4.7569913e-01
-2.0963866e-01
-6.5610123e-01
-6.6347100e-02
-1.1973365e-01
-3.0788505e-01
-3.5268855e-01
-5.8393401e-01
-1.6906115e-01
-5.1812023e-01
0.0000000e+00
-6.9458199e-01
-8.5392734e-03
-7.0165610e-01
-3.9753875e-01
-2.6393193e-01
-7.0171040e-01
-1.7030336e-02
-6.3864708e-01
-7.6687768e-02
-6.9810665e-01
-2.5446489e-02
-2.2239101e-01
-4.4452170e-01
-3.3757884e-02
-6.9072813e-01
-1.3105090e-01
-5.5793655e-01
-8.6675376e-02
-6.1803061e-01
-1.8090415e-01
-4.8774993e-01
-6.7976010e-01
-4.1931175e-02
-3.1990233e-01
-2.7601925e-01
-3.6487675e-01
-6.6533649e-01
-4.0931144e-01
-2.3269713e-01
-4.9929004e-02
-5.2897030e-01
-1.4162220e-01
-5.9433758e-01
-9.6238755e-02
-7.0153105e-01
0.0000000e+00
-5.7040262e-03
-1.9080053e-01
-4.5288807e-01
-7.0868063e-01
-6.4757991e-01
-5.7708960e-02
-1.1370825e-02
-7.0873845e-01
-1.6985087e-02
-7.0509821e-01
-1.0527861e-01
-5.6756264e-01
-4.9783957e-01
-1.5153098e-01
-6.9763982e-01
-2.8692520e-01
-2.2528753e-02
-3.3124912e-01
-6.2658834e-01
-6.5221824e-02
-3.7567621e-01
-2.4348262e-01
-6.8654758e-01
-2.7980968e-02
-2.0102498e-01
-4.1956717e-01
-1.1376686e-01
-5.3797978e-01
-3.3317961e-02
-7.2408117e-02
-6.0243374e-01
-6.7195308e-01
-4.6206066e-01
-1.5978028e-01
0.0000000e+00
-7.0571148e-01
-7.1290654e-01
-2.8459411e-03
-3.8512677e-02
-6.5397626e-01
-2.9649237e-01
-7.1296656e-01
-5.6657945e-03
-2.5314620e-01
-3.4100127e-01
-7.9186939e-02
-5.7513171e-01
-7.0930421e-01
-5.0297183e-01
-1.2099276e-01
-8.4557338e-03
-2.1034889e-01
-3.8506138e-01
-1.1209613e-02
-7.0179731e-01
-6.3271081e-01
-4.3533687e-02
-4.2817187e-01
-1.6867821e-01
-6.9062930e-01
-1.3919272e-02
-5.4485101e-01
-8.5477270e-02
-4.6972233e-01
-1.2865439e-01
-4.8343111e-02
-6.0822856e-01
-6.7593026e-01
-1.6574949e-02
0.0000000e+00
0.0000000e+00
0.0000000e+00
0.0000000e+00
-1.9165896e-02
0.0000000e+00
-7.0710677e-01
-6.5781772e-01
-3.9313301e-01
-1.7694695e-01
2.3679560e-05
-7.1431744e-01
-5.0921065e-01
-9.0703607e-02
-7.1437848e-01
6.2249841e-05
-5.2883029e-02
-5.8054221e-01
1.0810766e-04
-7.1070898e-01
-4.3519616e-01
-1.3592781e-01
-6.3638276e-01
-2.1681497e-02
1.5557316e-04
-7.0318574e-01
0.0000000e+00
0.0000000e+00
-5.7083271e-02
-6.9199193e-01
2.0032581e-04
0.0000000e+00
-5.4986876e-01
-9.7092979e-02
-4.7576836e-01
0.0000000e+00
0.0000000e+00
-6.1169434e-01
-2.4113243e-02
-6.7725658e-01
2.3862552e-04
0.0000000e+00
0.0000000e+00
-6.0477998e-02
-5.1383048e-01
2.6599376e-04
-6.5909553e-01
-5.8376926e-01
-2.6453337e-02
-7.0571148e-01
0.0000000e+00
-7.1290779e-01
2.8933776e-03
5.7904664e-03
-4.4100887e-01
-1.0327145e-01
-7.1296895e-01
0.0000000e+00
8.6723715e-03
-7.0930743e-01
0.0000000e+00
0.0000000e+00
2.7436230e-04
-6.3759667e-01
0.0000000e+00
-7.0180076e-01
1.1521810e-02
-2.8689168e-02
-5.5285090e-01
0.0000000e+00
0.0000000e+00
-4.8002079e-01
-6.5148652e-02
1.4322422e-02
-6.9063199e-01
-6.1282200e-01
2.4381370e-04
0.0000000e+00
0.0000000e+00
-6.7593026e-01
1.7057989e-02
-5.1670873e-01
-3.0477621e-02
0.0000000e+00
0.0000000e+00
0.0000000e+00
0.0000000e+00
1.9711580e-02
-6.5781111e-01
1.1551423e-04
-5.8476841e-01
0.0000000e+00
0.0000000e+00
-7.0153105e-01
0.0000000e+00
5.7516224e-03
-7.0868331e-01
0.0000000e+00
-7.0874357e-01
1.1495832e-02
-7.0510536e-01
1.7202606e-02
0.0000000e+00
0.0000000e+00
-6.3636130e-01
2.2264726e-02
-6.9764817e-01
-3.3374641e-02
-4.8268268e-01
2.2843266e-02
-5.5360538e-01
-3.1860918e-04
-6.8655556e-01
2.8389689e-02
0.0000000e+00
0.0000000e+00
-6.1164105e-01
2.4698453e-02
0.0000000e+00
0.0000000e+00
-6.7195797e-01
0.0000000e+00
0.0000000e+00
3.3813544e-02
-1.8615919e-03
-5.1677555e-01
0.0000000e+00
0.0000000e+00
0.0000000e+00
0.0000000e+00
-5.8364451e-01
2.6998265e-02
-6.5397251e-01
3.9085701e-02
0.0000000e+00
-6.9458199e-01
-7.0166057e-01
8.5869310e-03
0.0000000e+00
0.0000000e+00
1.7155405e-02
-7.0171905e-01
-6.9811910e-01
-6.3268811e-01
2.5664441e-02
4.4176549e-02
-4.8258945e-01
-3.0194854e-03
2.9220339e-02
-5.5256850e-01
3.4074131e-02
0.0000000e+00
-6.9074363e-01
0.0000000e+00
0.0000000e+00
0.0000000e+00
0.0000000e+00
0.0000000e+00
0.0000000e+00
4.2344701e-02
-6.7977744e-01
-6.0816324e-01
4.9058836e-02
0.0000000e+00
0.0000000e+00
3.1574614e-02
-5.1605111e-01
-6.6535336e-01
5.0435554e-02
0.0000000e+00
0.0000000e+00
-5.8039409e-01
5.3715359e-02
0.0000000e+00
0.0000000e+00
5.8304437e-02
-6.4759278e-01
0.0000000e+00
-6.8489170e-01
0.0000000e+00
0.0000000e+00
-6.9186723e-01
1.1387995e-02
2.2746598e-02
0.0000000e+00
0.0000000e+00
3.2407995e-02
-4.8180655e-01
-6.9192266e-01
-6.2658918e-01
6.5906458e-02
-5.4952747e-01
0.0000000e+00
0.0000000e+00
-6.8837529e-01
3.4024078e-02
5.8190878e-02
0.0000000e+00
0.0000000e+00
4.5169495e-02
-6.8111265e-01
7.3196344e-02
0.0000000e+00
-6.0241479e-01
0.0000000e+00
5.6131594e-02
-6.7032093e-01
0.0000000e+00
0.0000000e+00
-5.1314586e-01
6.2325865e-02
6.6857576e-02
-6.5613657e-01
0.0000000e+00
0.0000000e+00
0.0000000e+00
-5.7504272e-01
0.0000000e+00
8.0114193e-02
0.0000000e+00
7.7291600e-02
-6.3868642e-01
0.0000000e+00
0.0000000e+00
-4.7896484e-01
6.5125838e-02
0.0000000e+00
-6.7249852e-01
0.0000000e+00
0.0000000e+00
1.4143780e-02
-6.7934173e-01
0.0000000e+00
0.0000000e+00
-6.7939264e-01
2.8247390e-02
8.7373301e-02
8.6657755e-02
-5.4471540e-01
-6.1807626e-01
-6.7591125e-01
4.2248614e-02
0.0000000e+00
0.0000000e+00
5.6085795e-02
-6.6879070e-01
-5.9438121e-01
9.7033627e-02
0.0000000e+00
0.0000000e+00
0.0000000e+00
6.9696568e-02
0.0000000e+00
-6.5821832e-01
9.2257276e-02
-5.0869787e-01
0.0000000e+00
0.0000000e+00
0.0000000e+00
0.0000000e+00
-6.4433444e-01
8.3016410e-02
0.0000000e+00
0.0000000e+00
-5.6769764e-01
1.0619849e-01
9.5976830e-02
0.0000000e+00
0.0000000e+00
-6.2727231e-01
9.7026348e-02
-4.7477448e-01
0.0000000e+00
0.0000000e+00
-6.5745127e-01
0.0000000e+00
1.6843583e-02
-5.3791559e-01
1.1472721e-01
-6.6413343e-01
-6.0714638e-01
1.0850300e-01
0.0000000e+00
0.0000000e+00
3.3636432e-02
-6.6417795e-01
0.0000000e+00
0.0000000e+00
0.0000000e+00
-6.6077495e-01
5.0306182e-02
0.0000000e+00
0.0000000e+00
-6.5382367e-01
6.6780865e-02
0.0000000e+00
0.0000000e+00
-5.8405405e-01
1.2051048e-01
0.0000000e+00
0.0000000e+00
-5.0586551e-01
1.2259243e-01
0.0000000e+00
0.0000000e+00
8.2987584e-02
-6.4351207e-01
9.8850936e-02
-6.2998372e-01
0.0000000e+00
-5.5807602e-01
0.0000000e+00
1.3190092e-01
0.0000000e+00
0.0000000e+00
1.2874702e-01
-4.6916959e-01
-6.1337721e-01
1.1429112e-01
0.0000000e+00
0.0000000e+00
0.0000000e+00
0.0000000e+00
0.0000000e+00
0.0000000e+00
-5.2928680e-01
1.4254178e-01
0.0000000e+00
-6.3980937e-01
1.9477064e-02
0.0000000e+00
0.0000000e+00
-5.9381568e-01
1.2922154e-01
-6.4630228e-01
3.8893089e-02
-6.4633840e-01
5.8165953e-02
-6.4302528e-01
0.0000000e+00
0.0000000e+00
-4.3429995e-01
1.3507387e-01
7.7213861e-02
0.0000000e+00
0.0000000e+00
-6.3626850e-01
1.4354610e-01
-5.7140732e-01
-4.9790087e-01
1.5234472e-01
9.5954038e-02
-6.2625581e-01
0.0000000e+00
0.0000000e+00
0.0000000e+00
0.0000000e+00
0.0000000e+00
-6.1313272e-01
1.1430116e-01
1.5715398e-01
-5.4624766e-01
0.0000000e+00
0.0000000e+00
0.0000000e+00
0.0000000e+00
1.6033491e-01
-4.6181393e-01
0.0000000e+00
0.0000000e+00
-5.9704185e-01
1.3216557e-01
0.0000000e+00
0.0000000e+00
1.6992895e-01
-5.1845622e-01
1.4945109e-01
-5.7811242e-01
0.0000000e+00
-6.1964238e-01
0.0000000e+00
0.0000000e+00
-6.2591881e-01
2.2034237e-02
4.3997422e-02
-6.2594450e-01
1.6832152e-01
-4.2750898e-01
0.0000000e+00
0.0000000e+00
-6.2273198e-01
6.5798089e-02
1.6605259e-01
1.8167748e-01
0.0000000e+00
0.0000000e+00
8.7345146e-02
-6.1619335e-01
-4.8801515e-01
-5.5646062e-01
0.0000000e+00
0.0000000e+00
0.0000000e+00
0.0000000e+00
1.0854658e-01
-6.0651469e-01
0.0000000e+00
0.0000000e+00
1.8185346e-01
-5.3219306e-01
0.0000000e+00
1.2930810e-01
-5.9384233e-01
0.0000000e+00
0.0000000e+00
0.0000000e+00
1.9249450e-01
-4.5568067e-01
0.0000000e+00
0.0000000e+00
-5.7832110e-01
1.4953142e-01
1.9672517e-01
0.0000000e+00
0.0000000e+00
-5.0541240e-01
0.0000000e+00
-5.6008416e-01
1.6911246e-01
0.0000000e+00
0.0000000e+00
0.0000000e+00
0.0000000e+00
0.0000000e+00
-5.9702998e-01
2.0115195e-01
2.4505461e-02
-4.1926205e-01
-6.0306370e-01
4.8930157e-02
0.0000000e+00
0.0000000e+00
-6.0307717e-01
7.3173724e-02
0.0000000e+00
0.0000000e+00
-5.9997559e-01
2.1050997e-01
-4.7621202e-01
0.0000000e+00
0.0000000e+00
-5.3925300e-01
1.8793924e-01
9.7136244e-02
-5.9367746e-01
1.2071714e-01
-5.8436579e-01
0.0000000e+00
0.0000000e+00
2.1021010e-01
-3.8465112e-01
2.0589051e-01
0.0000000e+00
0.0000000e+00
-5.1594037e-01
-5.7218635e-01
1.4381388e-01
2.2314696e-01
-4.4480678e-01
0.0000000e+00
0.0000000e+00
0.0000000e+00
0.0000000e+00
1.6632064e-01
0.0000000e+00
0.0000000e+00
-5.5728441e-01
-4.9025077e-01
2.2283043e-01
0.0000000e+00
0.0000000e+00
0.0000000e+00
0.0000000e+00
1.8812664e-01
2.3332098e-01
-4.0930784e-01
-5.3979486e-01
0.0000000e+00
0.0000000e+00
0.0000000e+00
-5.7206142e-01
0.0000000e+00
0.0000000e+00
2.6881395e-02
-5.7782769e-01
5.3672630e-02
-5.7782751e-01
2.3863046e-01
-4.6231779e-01
8.0264851e-02
-5.7484710e-01
2.0911480e-01
-5.1984245e-01
-5.6881088e-01
0.0000000e+00
0.0000000e+00
1.0654979e-01
-3.7551266e-01
2.4366891e-01
-5.5989754e-01
1.3241884e-01
0.0000000e+00
0.0000000e+00
0.0000000e+00
0.0000000e+00
0.0000000e+00
2.2915965e-01
-4.9754289e-01
2.5303343e-01
0.0000000e+00
0.0000000e+00
-4.3211645e-01
0.0000000e+00
-5.4825073e-01
0.0000000e+00
1.5776193e-01
0.0000000e+00
0.0000000e+00
1.8246645e-01
-5.3401440e-01
2.4812867e-01
-4.7301072e-01
0.0000000e+00
0.0000000e+00
0.0000000e+00
0.0000000e+00
2.6624438e-01
-4.0037200e-01
0.0000000e+00
0.0000000e+00
2.0641594e-01
-5.1732337e-01
-5.4483515e-01
0.0000000e+00
-5.5031085e-01
2.9152950e-02
5.8206659e-02
-5.5029637e-01
0.0000000e+00
0.0000000e+00
2.6586941e-01
-4.4634899e-01
0.0000000e+00
0.0000000e+00
8.7044179e-02
-5.4744720e-01
0.0000000e+00
0.0000000e+00
-4.9830309e-01
2.2948895e-01
-5.4169375e-01
1.1554935e-01
0.0000000e+00
0.0000000e+00
0.0000000e+00
0.0000000e+00
2.7623206e-01
-3.6487067e-01
-5.3320885e-01
1.4360599e-01
0.0000000e+00
0.0000000e+00
2.5155827e-01
-4.7707164e-01
0.0000000e+00
0.0000000e+00
-4.1774136e-01
2.8226945e-01
-5.2213269e-01
1.7109704e-01
0.0000000e+00
0.0000000e+00
-5.0860608e-01
1.9790366e-01
-3.3122766e-01
2.8706974e-01
2.7248916e-01
-4.5374206e-01
0.0000000e+00
0.0000000e+00
-3.8710302e-01
2.9698911e-01
0.0000000e+00
0.0000000e+00
0.0000000e+00
-4.9276194e-01
0.0000000e+00
0.0000000e+00
2.2390433e-01
0.0000000e+00
0.0000000e+00
2.9214463e-01
-4.2843500e-01
0.0000000e+00
-5.1545864e-01
-5.2062255e-01
3.1311207e-02
0.0000000e+00
0.0000000e+00
-5.2059376e-01
6.2514402e-02
-4.7472456e-01
2.4897401e-01
9.3484953e-02
-5.1788622e-01
0.0000000e+00
0.0000000e+00
3.1043994e-01
-3.5535756e-01
0.0000000e+00
0.0000000e+00
1.2409919e-01
0.0000000e+00
0.0000000e+00
-5.1243591e-01
-4.0125799e-01
-5.0440866e-01
1.5423378e-01
3.1036451e-01
2.7298355e-01
-4.5461109e-01
0.0000000e+00
0.0000000e+00
-4.9393967e-01
0.0000000e+00
0.0000000e+00
1.8376511e-01
0.0000000e+00
0.0000000e+00
3.2031810e-01
-3.2031891e-01
0.0000000e+00
0.0000000e+00
2.9579997e-01
-4.3253520e-01
0.0000000e+00
0.0000000e+00
-4.8116526e-01
2.1256854e-01
3.2706308e-01
-3.7242898e-01
0.0000000e+00
0.0000000e+00
0.0000000e+00
0.0000000e+00
-4.6621454e-01
2.4051782e-01
3.1728506e-01
-4.0860963e-01
0.0000000e+00
-4.8404789e-01
3.3347305e-02
-4.8888066e-01
0.0000000e+00
0.0000000e+00
3.3122936e-01
-2.8707016e-01
6.6578150e-02
-4.8883832e-01
-4.4920880e-01
3.4187564e-01
-3.4187534e-01
0.0000000e+00
0.0000000e+00
2.6748461e-01
-4.8628294e-01
9.9560611e-02
0.0000000e+00
-4.8115593e-01
1.3216390e-01
0.0000000e+00
0.0000000e+00
-3.8296163e-01
0.0000000e+00
0.0000000e+00
3.3730549e-01
0.0000000e+00
0.0000000e+00
2.9333824e-01
-4.7361472e-01
1.6425791e-01
-4.3026257e-01
0.0000000e+00
0.0000000e+00
1.9571279e-01
-4.6378833e-01
0.0000000e+00
0.0000000e+00
3.5535830e-01
-3.1044000e-01
0.0000000e+00
0.0000000e+00
0.0000000e+00
-4.0948600e-01
3.1794572e-01
0.0000000e+00
-3.5570535e-01
3.5570550e-01
2.2639842e-01
-4.5180720e-01
0.0000000e+00
-4.3779513e-01
0.0000000e+00
2.5618407e-01
3.4117344e-01
0.0000000e+00
-3.8698974e-01
0.0000000e+00
3.6487335e-01
-2.7623209e-01
0.0000000e+00
0.0000000e+00
0.0000000e+00
0.0000000e+00
3.7242919e-01
0.0000000e+00
-4.5072684e-01
-3.2706282e-01
-4.5521110e-01
3.5252310e-02
-4.5515671e-01
0.0000000e+00
2.8493816e-01
0.0000000e+00
7.0380054e-02
-4.2186874e-01
-4.5276424e-01
1.0524442e-01
0.0000000e+00
0.0000000e+00
1.3970788e-01
-4.4798025e-01
0.0000000e+00
0.0000000e+00
-3.6288643e-01
3.6288640e-01
-4.0413800e-01
3.1252813e-01
-4.4095272e-01
1.7363393e-01
3.7552008e-01
-2.4366768e-01
3.8710371e-01
-2.9698884e-01
0.0000000e+00
0.0000000e+00
0.0000000e+00
0.0000000e+00
2.0688678e-01
-4.3180335e-01
3.8296136e-01
-3.8470864e-01
-3.3730531e-01
3.3882117e-01
0.0000000e+00
-4.2065534e-01
2.3933107e-01
0.0000000e+00
0.0000000e+00
0.0000000e+00
0.0000000e+00
0.0000000e+00
0.0000000e+00
2.7083170e-01
4.0037408e-01
-2.6624396e-01
-4.0762594e-01
3.8466305e-01
0.0000000e+00
0.0000000e+00
-2.1020965e-01
-3.6368477e-01
3.6368471e-01
-3.1036422e-01
4.0125754e-01
0.0000000e+00
0.0000000e+00
0.0000000e+00
-4.1562694e-01
0.0000000e+00
0.0000000e+00
-4.1974729e-01
3.7017070e-02
-3.9282569e-01
3.0125374e-01
7.3901840e-02
-4.1968313e-01
-4.1746438e-01
1.1050903e-01
-3.4117332e-01
3.8698941e-01
1.4669479e-01
-4.1304269e-01
0.0000000e+00
0.0000000e+00
4.0931290e-01
-2.3331998e-01
3.3046263e-01
-3.7635875e-01
0.0000000e+00
0.0000000e+00
-2.8226912e-01
0.0000000e+00
0.0000000e+00
-4.0655550e-01
1.8231657e-01
4.1774085e-01
0.0000000e+00
0.0000000e+00
-3.9811629e-01
2.1723294e-01
0.0000000e+00
0.0000000e+00
-3.1728482e-01
4.0860888e-01
0.0000000e+00
0.0000000e+00
-3.5832471e-01
3.5832477e-01
-3.8783991e-01
2.5130352e-01
0.0000000e+00
0.0000000e+00
-2.0115213e-01
4.1926938e-01
-2.5303304e-01
4.3211603e-01
2.8438893e-01
-3.7583596e-01
3.8470843e-01
-3.3882102e-01
0.0000000e+00
0.0000000e+00
0.0000000e+00
0.0000000e+00
4.2843369e-01
-2.9214430e-01
3.1635088e-01
0.0000000e+00
-3.7888676e-01
-3.6220765e-01
0.0000000e+00
3.8632039e-02
-3.8262969e-01
0.0000000e+00
0.0000000e+00
-3.8255844e-01
7.7124462e-02
0.0000000e+00
0.0000000e+00
0.0000000e+00
1.1532599e-01
4.0948534e-01