# vtk DataFile Version 4.0
vtk output
ASCII
DATASET UNSTRUCTURED_GRID
POINTS 2601 float
0.0000000e+00 0.0000000e+00 0.0000000e+00 
0.0000000e+00 2.0000000e-02 0.0000000e+00 
2.0000000e-02 0.0000000e+00 0.0000000e+00 
2.0000000e-02 2.0000000e-02 0.0000000e+00 
3.9999999e-02 0.0000000e+00 0.0000000e+00 
0.0000000e+00 3.9999999e-02 0.0000000e+00 
3.9999999e-02 2.0000000e-02 0.0000000e+00 
2.0000000e-02 3.9999999e-02 0.0000000e+00 
3.9999999e-02 3.9999999e-02 0.0000000e+00 
5.9999999e-02 0.0000000e+00 0.0000000e+00 
0.0000000e+00 5.9999999e-02 0.0000000e+00 
5.9999999e-02 2.0000000e-02 0.0000000e+00 
2.0000000e-02 5.9999999e-02 0.0000000e+00 
3.9999999e-02 5.9999999e-02 0.0000000e+00 
5.9999999e-02 3.9999999e-02 0.0000000e+00 
7.9999998e-02 0.0000000e+00 0.0000000e+00 
0.0000000e+00 7.9999998e-02 0.0000000e+00 
7.9999998e-02 2.0000000e-02 0.0000000e+00 
2.0000000e-02 7.9999998e-02 0.0000000e+00 
5.9999999e-02 5.9999999e-02 0.0000000e+00 
7.9999998e-02 3.9999999e-02 0.0000000e+00 
3.9999999e-02 7.9999998e-02 0.0000000e+00 
5.9999999e-02 7.9999998e-02 0.0000000e+00 
7.9999998e-02 5.9999999e-02 0.0000000e+00 
1.0000000e-01 0.0000000e+00 0.0000000e+00 
0.0000000e+00 1.0000000e-01 0.0000000e+00 
1.0000000e-01 2.0000000e-02 0.0000000e+00 
2.0000000e-02 1.0000000e-01 0.0000000e+00 
3.9999999e-02 1.0000000e-01 0.0000000e+00 
1.0000000e-01 3.9999999e-02 0.0000000e+00 
7.9999998e-02 7.9999998e-02 0.0000000e+00 
1.0000000e-01 5.9999999e-02 0.0000000e+00 
5.9999999e-02 1.0000000e-01 0.0000000e+00 
1.2000000e-01 0.0000000e+00 0.0000000e+00 
0.0000000e+00 1.2000000e-01 0.0000000e+00 
1.2000000e-01 2.0000000e-02 0.0000000e+00 
2.0000000e-02 1.2000000e-01 0.0000000e+00 
1.2000000e-01 3.9999999e-02 0.0000000e+00 
3.9999999e-02 1.2000000e-01 0.0000000e+00 
1.0000000e-01 7.9999998e-02 0.0000000e+00 
7.9999998e-02 1.0000000e-01 0.0000000e+00 
1.2000000e-01 5.9999999e-02 0.0000000e+00 
5.9999999e-02 1.2000000e-01 0.0000000e+00 
0.0000000e+00 1.4000000e-01 0.0000000e+00 
1.4000000e-01 0.0000000e+00 0.0000000e+00 
1.0000000e-01 1.0000000e-01 0.0000000e+00 
2.0000000e-02 1.4000000e-01 0.0000000e+00 
1.4000000e-01 2.0000000e-02 0.0000000e+00 
1.2000000e-01 7.9999998e-02 0.0000000e+00 
7.9999998e-02 1.2000000e-01 0.0000000e+00 
3.9999999e-02 1.4000000e-01 0.0000000e+00 
1.4000000e-01 3.9999999e-02 0.0000000e+00 
1.4000000e-01 5.9999999e-02 0.0000000e+00 
5.9999999e-02 1.4000000e-01 0.0000000e+00 
1.2000000e-01 1.0000000e-01 0.0000000e+00 
1.0000000e-01 1.2000000e-01 0.0000000e+00 
1.6000000e-01 0.0000000e+00 0.0000000e+00 
0.0000000e+00 1.6000000e-01 0.0000000e+00 
1.6000000e-01 2.0000000e-02 0.0000000e+00 
7.9999998e-02 1.4000000e-01 0.0000000e+00 
2.0000000e-02 1.6000000e-01 0.0000000e+00 
1.4000000e-01 7.9999998e-02 0.0000000e+00 
1.6000000e-01 3.9999999e-02 0.0000000e+00 
3.9999999e-02 1.6000000e-01 0.0000000e+00 
1.2000000e-01 1.2000000e-01 0.0000000e+00 
1.6000000e-01 5.9999999e-02 0.0000000e+00 
5.9999999e-02 1.6000000e-01 0.0000000e+00 
1.0000000e-01 1.4000000e-01 0.0000000e+00 
1.4000000e-01 1.0000000e-01 0.0000000e+00 
1.6000000e-01 7.9999998e-02 0.0000000e+00 
7.9999998e-02 1.6000000e-01 0.0000000e+00 
0.0000000e+00 1.8000001e-01 0.0000000e+00 
1.8000001e-01 0.0000000e+00 0.0000000e+00 
1.8000001e-01 2.0000000e-02 0.0000000e+00 
2.0000000e-02 1.8000001e-01 0.0000000e+00 
3.9999999e-02 1.8000001e-01 0.0000000e+00 
1.8000001e-01 3.9999999e-02 0.0000000e+00 
1.2000000e-01 1.4000000e-01 0.0000000e+00 
1.4000000e-01 1.2000000e-01 0.0000000e+00 
1.0000000e-01 1.6000000e-01 0.0000000e+00 
1.6000000e-01 1.0000000e-01 0.0000000e+00 
1.8000001e-01 5.9999999e-02 0.0000000e+00 
5.9999999e-02 1.8000001e-01 0.0000000e+00 
7.9999998e-02 1.8000001e-01 0.0000000e+00 
1.8000001e-01 7.9999998e-02 0.0000000e+00 
1.4000000e-01 1.4000000e-01 0.0000000e+00 
1.2000000e-01 1.6000000e-01 0.0000000e+00 
1.6000000e-01 1.2000000e-01 0.0000000e+00 
0.0000000e+00 2.0000000e-01 0.0000000e+00 
2.0000000e-01 0.0000000e+00 0.0000000e+00 
2.0000000e-01 2.0000000e-02 0.0000000e+00 
2.0000000e-02 2.0000000e-01 0.0000000e+00 
2.0000000e-01 3.9999999e-02 0.0000000e+00 
3.9999999e-02 2.0000000e-01 0.0000000e+00 
1.0000000e-01 1.8000001e-01 0.0000000e+00 
1.8000001e-01 1.0000000e-01 0.0000000e+00 
2.0000000e-01 5.9999999e-02 0.0000000e+00 
5.9999999e-02 2.0000000e-01 0.0000000e+00 
1.4000000e-01 1.6000000e-01 0.0000000e+00 
1.6000000e-01 1.4000000e-01 0.0000000e+00 
2.0000000e-01 7.9999998e-02 0.0000000e+00 
7.9999998e-02 2.0000000e-01 0.0000000e+00 
1.8000001e-01 1.2000000e-01 0.0000000e+00 
1.2000000e-01 1.8000001e-01 0.0000000e+00 
2.2000000e-01 0.0000000e+00 0.0000000e+00 
0.0000000e+00 2.2000000e-01 0.0000000e+00 
2.2000000e-01 2.0000000e-02 0.0000000e+00 
2.0000000e-02 2.2000000e-01 0.0000000e+00 
2.2000000e-01 3.9999999e-02 0.0000000e+00 
3.9999999e-02 2.2000000e-01 0.0000000e+00 
1.0000000e-01 2.0000000e-01 0.0000000e+00 
2.0000000e-01 1.0000000e-01 0.0000000e+00 
1.6000000e-01 1.6000000e-01 0.0000000e+00 
2.2000000e-01 5.9999999e-02 0.0000000e+00 
5.9999999e-02 2.2000000e-01 0.0000000e+00 
1.8000001e-01 1.4000000e-01 0.0000000e+00 
1.4000000e-01 1.8000001e-01 0.0000000e+00 
2.0000000e-01 1.2000000e-01 0.0000000e+00 
1.2000000e-01 2.0000000e-01 0.0000000e+00 
7.9999998e-02 2.2000000e-01 0.0000000e+00 
2.2000000e-01 7.9999998e-02 0.0000000e+00 
2.3999999e-01 0.0000000e+00 0.0000000e+00 
0.0000000e+00 2.3999999e-01 0.0000000e+00 
2.3999999e-01 2.0000000e-02 0.0000000e+00 
1.8000001e-01 1.6000000e-01 0.0000000e+00 
1.6000000e-01 1.8000001e-01 0.0000000e+00 
2.0000000e-02 2.3999999e-01 0.0000000e+00 
2.2000000e-01 1.0000000e-01 0.0000000e+00 
1.0000000e-01 2.2000000e-01 0.0000000e+00 
3.9999999e-02 2.3999999e-01 0.0000000e+00 
2.3999999e-01 3.9999999e-02 0.0000000e+00 
1.4000000e-01 2.0000000e-01 0.0000000e+00 
2.0000000e-01 1.4000000e-01 0.0000000e+00 
2.3999999e-01 5.9999999e-02 0.0000000e+00 
5.9999999e-02 2.3999999e-01 0.0000000e+00 
2.2000000e-01 1.2000000e-01 0.0000000e+00 
1.2000000e-01 2.2000000e-01 0.0000000e+00 
7.9999998e-02 2.3999999e-01 0.0000000e+00 
2.3999999e-01 7.9999998e-02 0.0000000e+00 
1.8000001e-01 1.8000001e-01 0.0000000e+00 
2.0000000e-01 1.6000000e-01 0.0000000e+00 
1.6000000e-01 2.0000000e-01 0.0000000e+00 
1.0000000e-01 2.3999999e-01 0.0000000e+00 
2.3999999e-01 1.0000000e-01 0.0000000e+00 
0.0000000e+00 2.5999999e-01 0.0000000e+00 
2.5999999e-01 0.0000000e+00 0.0000000e+00 
1.4000000e-01 2.2000000e-01 0.0000000e+00 
2.2000000e-01 1.4000000e-01 0.0000000e+00 
2.0000000e-02 2.5999999e-01 0.0000000e+00 
2.5999999e-01 2.0000000e-02 0.0000000e+00 
3.9999999e-02 2.5999999e-01 0.0000000e+00 
2.5999999e-01 3.9999999e-02 0.0000000e+00 
5.9999999e-02 2.5999999e-01 0.0000000e+00 
2.5999999e-01 5.9999999e-02 0.0000000e+00 
2.3999999e-01 1.2000000e-01 0.0000000e+00 
1.2000000e-01 2.3999999e-01 0.0000000e+00 
1.8000001e-01 2.0000000e-01 0.0000000e+00 
2.0000000e-01 1.8000001e-01 0.0000000e+00 
2.2000000e-01 1.6000000e-01 0.0000000e+00 
7.9999998e-02 2.5999999e-01 0.0000000e+00 
2.5999999e-01 7.9999998e-02 0.0000000e+00 
1.6000000e-01 2.2000000e-01 0.0000000e+00 
2.3999999e-01 1.4000000e-01 0.0000000e+00 
1.4000000e-01 2.3999999e-01 0.0000000e+00 
1.0000000e-01 2.5999999e-01 0.0000000e+00 
2.5999999e-01 1.0000000e-01 0.0000000e+00 
2.8000000e-01 0.0000000e+00 0.0000000e+00 
0.0000000e+00 2.8000000e-01 0.0000000e+00 
2.0000000e-02 2.8000000e-01 0.0000000e+00 
2.8000000e-01 2.0000000e-02 0.0000000e+00 
2.8000000e-01 3.9999999e-02 0.0000000e+00 
3.9999999e-02 2.8000000e-01 0.0000000e+00 
2.0000000e-01 2.0000000e-01 0.0000000e+00 
1.8000001e-01 2.2000000e-01 0.0000000e+00 
2.2000000e-01 1.8000001e-01 0.0000000e+00 
2.8000000e-01 5.9999999e-02 0.0000000e+00 
2.5999999e-01 1.2000000e-01 0.0000000e+00 
1.2000000e-01 2.5999999e-01 0.0000000e+00 
5.9999999e-02 2.8000000e-01 0.0000000e+00 
2.3999999e-01 1.6000000e-01 0.0000000e+00 
1.6000000e-01 2.3999999e-01 0.0000000e+00 
7.9999998e-02 2.8000000e-01 0.0000000e+00 
2.8000000e-01 7.9999998e-02 0.0000000e+00 
1.4000000e-01 2.5999999e-01 0.0000000e+00 
2.5999999e-01 1.4000000e-01 0.0000000e+00 
2.2000000e-01 2.0000000e-01 0.0000000e+00 
1.0000000e-01 2.8000000e-01 0.0000000e+00 
2.0000000e-01 2.2000000e-01 0.0000000e+00 
2.8000000e-01 1.0000000e-01 0.0000000e+00 
1.8000001e-01 2.3999999e-01 0.0000000e+00 
3.0000001e-01 0.0000000e+00 0.0000000e+00 
2.3999999e-01 1.8000001e-01 0.0000000e+00 
0.0000000e+00 3.0000001e-01 0.0000000e+00 
3.0000001e-01 2.0000000e-02 0.0000000e+00 
2.0000000e-02 3.0000001e-01 0.0000000e+00 
3.9999999e-02 3.0000001e-01 0.0000000e+00 
3.0000001e-01 3.9999999e-02 0.0000000e+00 
1.2000000e-01 2.8000000e-01 0.0000000e+00 
2.8000000e-01 1.2000000e-01 0.0000000e+00 
1.6000000e-01 2.5999999e-01 0.0000000e+00 
2.5999999e-01 1.6000000e-01 0.0000000e+00 
5.9999999e-02 3.0000001e-01 0.0000000e+00 
3.0000001e-01 5.9999999e-02 0.0000000e+00 
7.9999998e-02 3.0000001e-01 0.0000000e+00 
3.0000001e-01 7.9999998e-02 0.0000000e+00 
2.2000000e-01 2.2000000e-01 0.0000000e+00 
2.3999999e-01 2.0000000e-01 0.0000000e+00 
2.0000000e-01 2.3999999e-01 0.0000000e+00 
1.4000000e-01 2.8000000e-01 0.0000000e+00 
2.8000000e-01 1.4000000e-01 0.0000000e+00 
1.0000000e-01 3.0000001e-01 0.0000000e+00 
2.5999999e-01 1.8000001e-01 0.0000000e+00 
1.8000001e-01 2.5999999e-01 0.0000000e+00 
3.0000001e-01 1.0000000e-01 0.0000000e+00 
0.0000000e+00 3.1999999e-01 0.0000000e+00 
3.1999999e-01 0.0000000e+00 0.0000000e+00 
2.0000000e-02 3.1999999e-01 0.0000000e+00 
3.1999999e-01 2.0000000e-02 0.0000000e+00 
3.9999999e-02 3.1999999e-01 0.0000000e+00 
1.6000000e-01 2.8000000e-01 0.0000000e+00 
3.1999999e-01 3.9999999e-02 0.0000000e+00 
2.8000000e-01 1.6000000e-01 0.0000000e+00 
1.2000000e-01 3.0000001e-01 0.0000000e+00 
3.0000001e-01 1.2000000e-01 0.0000000e+00 
2.2000000e-01 2.3999999e-01 0.0000000e+00 
5.9999999e-02 3.1999999e-01 0.0000000e+00 
2.3999999e-01 2.2000000e-01 0.0000000e+00 
3.1999999e-01 5.9999999e-02 0.0000000e+00 
2.0000000e-01 2.5999999e-01 0.0000000e+00 
2.5999999e-01 2.0000000e-01 0.0000000e+00 
[...]
POINT_DATA 2601
FIELD FieldData 1
TEMPERATURE 1 2601  float
0.0000000e+00
0.0000000e+00
3.9426493e-03
4.5459871e-03
7.8697391e-03
0.0000000e+00
9.0713892e-03
4.8266267e-03
9.6290903e-03
1.1765770e-02
0.0000000e+00
1.3558466e-02
5.0704973e-03
1.0113415e-02
1.4388513e-02
1.5615367e-02
0.0000000e+00
1.7989453e-02
5.2493042e-03
1.5108805e-02
1.9085931e-02
1.0467815e-02
1.5634697e-02
2.0036567e-02
1.9403338e-02
0.0000000e+00
2.2346672e-02
5.3651910e-03
1.0696544e-02
2.3702376e-02
2.0728871e-02
2.4876509e-02
1.5972484e-02
2.3114732e-02
0.0000000e+00
2.6612626e-02
5.4187863e-03
2.8218983e-02
1.0800846e-02
2.5729077e-02
2.1171091e-02
2.9608462e-02
1.6123990e-02
0.0000000e+00
2.6734903e-02
2.6270142e-02
5.4130806e-03
3.0770088e-02
3.0613968e-02
2.1365564e-02
1.0786689e-02
3.2617096e-02
3.4212396e-02
1.6098121e-02
3.1247208e-02
2.6502466e-02
3.0249564e-02
0.0000000e+00
3.4802191e-02
2.1324063e-02
5.3521465e-03
3.5362259e-02
3.6878407e-02
1.0662212e-02
3.1511243e-02
3.8668588e-02
1.5907049e-02
2.6440591e-02
3.6079817e-02
3.9952919e-02
2.1062741e-02
0.0000000e+00
3.3644844e-02
3.8692545e-02
5.2406900e-03
1.0436827e-02
4.0985078e-02
3.1423237e-02
3.6368258e-02
2.6104558e-02
4.0745664e-02
4.2957809e-02
1.5564879e-02
2.0600365e-02
4.4365391e-02
3.6247179e-02
3.1007009e-02
4.1049931e-02
0.0000000e+00
3.6907341e-02
4.2425327e-02
5.0836890e-03
4.4919919e-02
1.0120502e-02
2.5517756e-02
4.5222905e-02
4.7061518e-02
1.5086582e-02
3.5744004e-02
4.0887494e-02
4.8579879e-02
1.9956920e-02
4.5533076e-02
3.0290484e-02
4.0024184e-02
0.0000000e+00
4.5985404e-02
4.8861555e-03
4.8666555e-02
9.7232861e-03
2.4705183e-02
4.9490474e-02
4.0289160e-02
5.0962128e-02
1.4487286e-02
4.5319542e-02
3.4891102e-02
4.9795311e-02
2.9303687e-02
1.9152669e-02
5.2577645e-02
4.2983070e-02
0.0000000e+00
4.9358450e-02
4.4616200e-02
3.9291576e-02
4.6529830e-03
5.3528495e-02
2.3692325e-02
9.2550088e-03
5.2209597e-02
3.3723500e-02
4.9519479e-02
5.4643232e-02
1.3781828e-02
5.3815547e-02
2.8077411e-02
1.8207574e-02
5.6341350e-02
4.3463759e-02
4.8699580e-02
3.7934743e-02
2.2504417e-02
5.7318717e-02
0.0000000e+00
4.5772318e-02
3.2277416e-02
5.3464852e-02
4.3888502e-03
5.2531052e-02
8.7250825e-03
5.5534832e-02
1.2984467e-02
5.8089878e-02
5.7574574e-02
2.6642386e-02
4.1907091e-02
4.7380075e-02
5.2515220e-02
1.7140903e-02
5.9855405e-02
3.6260426e-02
5.7135336e-02
3.0589342e-02
2.1165986e-02
6.0844984e-02
4.8380926e-02
0.0000000e+00
4.0981658e-03
5.5490822e-02
5.8629394e-02
8.1423949e-03
4.5610555e-02
3.9993633e-02
5.1014442e-02
6.1288808e-02
6.1055657e-02
2.5028713e-02
1.2108700e-02
5.6041427e-02
3.4311198e-02
1.5970983e-02
6.3106328e-02
2.8695384e-02
6.0513545e-02
4.9016524e-02
1.9700490e-02
4.3444164e-02
6.4093694e-02
3.7772391e-02
5.0798599e-02
5.4343373e-02
0.0000000e+00
5.8226496e-02
3.7850293e-03
7.5152214e-03
6.1481904e-02
2.3265423e-02
6.4245179e-02
3.2129720e-02
5.9259925e-02
1.1167136e-02
6.4228676e-02
1.4714998e-02
6.6083014e-02
4.6580389e-02
5.2099258e-02
4.0936820e-02
2.6630731e-02
6.3585825e-02
1.8130053e-02
5.7347421e-02
3.5293318e-02
6.7054227e-02
0.0000000e+00
5.3015791e-02
3.4532053e-03
6.0728010e-02
6.8511697e-03
2.9758140e-02
6.4082608e-02
6.2156990e-02
2.1380084e-02
6.7133166e-02
4.3768909e-02
1.0171385e-02
4.9373273e-02
6.6900216e-02
3.8146336e-02
5.4837313e-02
1.3388816e-02
6.8777010e-02
2.4429098e-02
6.6343062e-02
6.0012408e-02
3.2606401e-02
1.6475175e-02
6.9719248e-02
4.6236642e-02
2.7237218e-02
6.4724408e-02
0.0000000e+00
5.5023752e-02
3.1061007e-03
5.1799659e-02
4.0649656e-02
6.2986538e-02
1.9398356e-02
6.9713801e-02
6.1571286e-03
6.6423424e-02
5.7216369e-02
3.5132460e-02
9.1319662e-03
6.9296345e-02
1.2006824e-02
7.1182601e-02
6.8781272e-02
2.2122029e-02
2.9761037e-02
6.2331371e-02
4.8310149e-02
4.2763755e-02
1.4754461e-02
7.2084919e-02
3.7290864e-02
5.3841226e-02
2.4605494e-02
6.6960476e-02
5.6814563e-02
0.0000000e+00
6.4994544e-02
2.7467464e-03
3.1953461e-02
1.7343553e-02
5.9228912e-02
7.1985632e-02
6.8497948e-02
5.4392200e-03
7.1412116e-02
8.0582136e-03
2.6803654e-02
6.4304732e-02
1.9738233e-02
4.4464350e-02
7.0901997e-02
1.0581768e-02
7.3296830e-02
3.9044600e-02
4.9978409e-02
3.3768903e-02
5.5497490e-02
7.4150853e-02
1.2984359e-02
6.8870276e-02
2.1897888e-02
6.0881000e-02
2.8668474e-02
7.3951609e-02
1.5236222e-02
5.8381148e-02
0.0000000e+00
6.6745721e-02
2.3777822e-03
4.7027627e-03
7.0301384e-02
4.5700110e-02
4.0332064e-02
5.1211506e-02
3.5145510e-02
7.3244616e-02
2.3777252e-02
6.9582099e-03
6.5942332e-02
7.2712332e-02
1.7302874e-02
3.0144073e-02
7.5119264e-02
5.6764066e-02
9.1246301e-03
1.1178950e-02
7.5919904e-02
7.0465960e-02
1.9144850e-02
2.5327006e-02
6.2185075e-02
4.1221444e-02
4.6559922e-02
3.6106247e-02
1.3093825e-02
7.5618796e-02
3.1205717e-02
5.9717331e-02
0.0000000e+00
5.2082643e-02
6.8234958e-02
2.0014506e-03
7.1830377e-02
3.9522569e-03
6.7262322e-02
2.0718262e-02
7.4792683e-02
5.8387388e-03
1.4837150e-02
7.4224815e-02
5.7680253e-02
2.6497057e-02
7.6445304e-03
7.6651618e-02
3.6331542e-02
4.1342232e-02
2.1972997e-02
6.3164495e-02
7.1766198e-02
1.6371686e-02
4.6751916e-02
3.1646755e-02
9.3497857e-03
7.7397570e-02
2.7211009e-02
5.2511081e-02
7.6997787e-02
1.0930520e-02
6.0817841e-02
0.0000000e+00
6.9458246e-02
1.6196033e-03
1.7655602e-02
6.8291090e-02
7.3082805e-02
3.1913838e-03
2.2875119e-02
5.8288857e-02
1.2357948e-02
7.5456031e-02
7.6056540e-02
3.6717027e-02
4.7052740e-03
3.2051183e-02
4.1730247e-02
7.7897154e-02
6.1486838e-03
4.6948433e-02
2.7562359e-02
6.3860007e-02
1.8644363e-02
1.3598683e-02
7.2797976e-02
7.5057917e-03
7.8591198e-02
5.2558109e-02
2.3286177e-02
7.8101121e-02
8.7568872e-03
1.4611883e-02
2.9531484e-02
3.3788815e-02
6.9057077e-02
1.9274969e-02
5.8550432e-02
0.0000000e+00
6.1678328e-02
1.2337264e-03
7.0412561e-02
3.8460389e-02
2.5663178e-02
7.4057497e-02
2.4230578e-03
7.6426834e-02
9.8779164e-03
7.7037290e-02
3.5620362e-03
2.3551617e-02
4.6935543e-02
4.6424428e-03
7.8859985e-02
1.5367178e-02
6.4343616e-02
1.0839297e-02
7.3586047e-02
1.9612938e-02
5.2647196e-02
7.9508789e-02
5.6532128e-03
2.8671833e-02
2.5212150e-02
3.3251140e-02
7.8942284e-02
3.7959572e-02
2.1701964e-02
6.5799216e-03
5.8498610e-02
1.5756899e-02
6.9627769e-02
1.1609830e-02
6.2295396e-02
0.0000000e+00
8.4499008e-04
1.8296530e-02
4.3293390e-02
7.1095727e-02
7.7156372e-02
7.4042422e-03
1.6495216e-03
7.4753970e-02
2.4121383e-03
7.7736519e-02
1.2129510e-02
6.4528942e-02
5.2633747e-02
1.6004466e-02
7.9544298e-02
2.4487579e-02
3.1294662e-03
2.8195875e-02
7.4167475e-02
8.1035709e-03
3.2402605e-02
2.1199504e-02
8.0157988e-02
3.7958142e-03
1.8000768e-02
3.7342139e-02
1.2450828e-02
5.8747780e-02
4.4028303e-03
8.6507890e-03
7.0013642e-02
7.9533093e-02
4.2822149e-02
1.4791571e-02
0.0000000e+00
6.2666617e-02
7.1506336e-02
4.5432427e-04
4.9391985e-03
7.7662967e-02
2.3105511e-02
7.5172156e-02
8.7250624e-04
2.0301547e-02
2.7145848e-02
9.0085017e-03
6.4715624e-02
7.8155793e-02
4.8743270e-02
1.1626078e-02
1.2578397e-03
1.7412847e-02
3.1486612e-02
1.6120996e-03
7.9953805e-02
7.4561074e-02
5.3901016e-03
3.6644317e-02
1.4500615e-02
8.0545180e-02
1.9353568e-03
5.8590855e-02
9.1806604e-03
4.2350769e-02
1.1528804e-02
5.7379482e-03
7.0267908e-02
7.9883419e-02
2.2258747e-03
0.0000000e+00
0.0000000e+00
0.0000000e+00
0.0000000e+00
2.4800126e-03
0.0000000e+00
6.2790520e-02
7.7959858e-02
3.0539401e-02
1.3952640e-02
6.2512554e-05
7.1643606e-02
4.8423205e-02
8.5477736e-03
7.5312182e-02
9.3433904e-05
5.9546768e-03
6.4796612e-02
1.0089453e-04
7.8296378e-02
3.5932269e-02
1.1216572e-02
7.4786253e-02
2.6920673e-03
9.1921851e-05
8.0091208e-02
0.0000000e+00
0.0000000e+00
6.0485676e-03
8.0674991e-02
7.2479736e-05
0.0000000e+00
5.8511034e-02
8.4583377e-03
4.1914515e-02
0.0000000e+00
0.0000000e+00
7.0400722e-02
2.8541156e-03
8.0000341e-02
4.7597758e-05
0.0000000e+00
0.0000000e+00
5.5987746e-03
4.8134293e-02
2.1547696e-05
7.8057468e-02
6.4817831e-02
2.9521345e-03
6.2666617e-02
0.0000000e+00
7.1507350e-02
-3.2970819e-04
-6.8636623e-04
3.5337899e-02
8.2008205e-03
7.5174235e-02
0.0000000e+00
-1.0570791e-03
7.8158922e-02
0.0000000e+00
0.0000000e+00
-2.1077253e-06
7.4856505e-02
0.0000000e+00
7.9957843e-02
-1.4296494e-03
2.9835387e-03
5.8400944e-02
0.0000000e+00
0.0000000e+00
4.1451868e-02
5.5298698e-03
-1.7923296e-03
8.0549732e-02
7.0432402e-02
-2.0634874e-05
0.0000000e+00
0.0000000e+00
7.9887621e-02
-2.1334684e-03
4.7891226e-02
2.7248682e-03
0.0000000e+00
0.0000000e+00
0.0000000e+00
0.0000000e+00
-2.4411385e-03
7.7961981e-02
-3.4963385e-05
6.4791657e-02
0.0000000e+00
0.0000000e+00
6.2295396e-02
0.0000000e+00
-7.2155875e-04
7.1097873e-02
0.0000000e+00
7.4758410e-02
-1.4654684e-03
7.7743307e-02
-2.2142825e-03
0.0000000e+00
0.0000000e+00
7.4782521e-02
-2.7026597e-03
7.9553321e-02
2.6974308e-03
4.1090209e-02
-2.9508744e-03
5.8269031e-02
-5.5644276e-05
8.0168791e-02
-3.6579927e-03
0.0000000e+00
0.0000000e+00
7.0384584e-02
-2.9051364e-03
0.0000000e+00
0.0000000e+00
7.9544649e-02
0.0000000e+00
0.0000000e+00
-4.3177148e-03
-1.7074971e-04
4.7485664e-02
0.0000000e+00
0.0000000e+00
0.0000000e+00
0.0000000e+00
6.4773299e-02
-3.0311262e-03
7.7672824e-02
-4.9107801e-03
0.0000000e+00
6.1678328e-02
7.0416033e-02
-1.1121448e-03
0.0000000e+00
0.0000000e+00
-2.2422017e-03
7.4064739e-02
7.7048570e-02
7.4565150e-02
-3.3685097e-03
-5.4159937e-03
4.0616993e-02
-1.4731377e-04
-3.0836409e-03
5.8302741e-02
-4.4693886e-03
0.0000000e+00
7.8875460e-02
0.0000000e+00
0.0000000e+00
0.0000000e+00
0.0000000e+00
0.0000000e+00
0.0000000e+00
-5.5225263e-03
7.9528473e-02
7.0254534e-02
-5.8093006e-03
0.0000000e+00
0.0000000e+00
-2.8194743e-03
4.7664400e-02
7.8965716e-02
-6.5042218e-03
0.0000000e+00
0.0000000e+00
6.4757012e-02
-6.0582901e-03
0.0000000e+00
0.0000000e+00
-7.3886323e-03
7.7182718e-02
0.0000000e+00
6.0817841e-02
0.0000000e+00
0.0000000e+00
6.9463238e-02
-1.5003962e-03
-3.0145275e-03
0.0000000e+00
0.0000000e+00
-2.7025514e-03
4.0844005e-02
7.3093295e-02
7.4192457e-02
-8.1462618e-03
5.8394164e-02
0.0000000e+00
0.0000000e+00
7.6073103e-02
-4.5169638e-03
-6.1489381e-03
0.0000000e+00
0.0000000e+00
-5.9819734e-03
7.7920482e-02
-8.7460428e-03
0.0000000e+00
7.0039131e-02
0.0000000e+00
-7.3827696e-03
7.8622065e-02
0.0000000e+00
0.0000000e+00
4.7958586e-02
-5.6043533e-03
-8.6906394e-03
7.8140549e-02
0.0000000e+00
0.0000000e+00
0.0000000e+00
6.4693168e-02
0.0000000e+00
-9.1323396e-03
0.0000000e+00
-9.8738894e-03
7.6475434e-02
0.0000000e+00
0.0000000e+00
4.1279659e-02
-5.4356372e-03
0.0000000e+00
5.9717331e-02
0.0000000e+00
0.0000000e+00
-1.8850124e-03
6.8241589e-02
0.0000000e+00
0.0000000e+00
7.1844369e-02
-3.7799273e-03
-1.0897202e-02
-9.3314890e-03
5.8609288e-02
7.3648386e-02
7.4815005e-02
-5.6560780e-03
0.0000000e+00
0.0000000e+00
-7.4842894e-03
7.6683536e-02
6.9689393e-02
-1.1718328e-02
0.0000000e+00
0.0000000e+00
0.0000000e+00
-9.2340307e-03
0.0000000e+00
7.7440828e-02
-8.5963188e-03
4.8164345e-02
0.0000000e+00
0.0000000e+00
0.0000000e+00
0.0000000e+00
7.7054679e-02
-1.0872449e-02
0.0000000e+00
0.0000000e+00
6.4707950e-02
-1.2300276e-02
-1.2363355e-02
0.0000000e+00
0.0000000e+00
7.5530186e-02
-8.4035443e-03
4.1684445e-02
0.0000000e+00
0.0000000e+00
5.8381148e-02
0.0000000e+00
-2.2644110e-03
5.8545638e-02
-1.2542268e-02
6.6753969e-02
7.2892450e-02
-1.3666109e-02
0.0000000e+00
0.0000000e+00
-4.5352932e-03
7.0318840e-02
0.0000000e+00
0.0000000e+00
0.0000000e+00
7.3272616e-02
-6.7813378e-03
0.0000000e+00
0.0000000e+00
7.5159669e-02
-8.9706015e-03
0.0000000e+00
0.0000000e+00
6.9187745e-02
-1.4734859e-02
0.0000000e+00
0.0000000e+00
5.2349638e-02
-1.2597883e-02
0.0000000e+00
0.0000000e+00
-1.1069620e-02
7.5975262e-02
-1.3042429e-02
7.5692683e-02
0.0000000e+00
6.4477257e-02
0.0000000e+00
-1.5519155e-02
0.0000000e+00
0.0000000e+00
-1.1416996e-02
4.2231314e-02
7.4321978e-02
-1.4849551e-02
0.0000000e+00
0.0000000e+00
0.0000000e+00
0.0000000e+00
0.0000000e+00
0.0000000e+00
5.8843028e-02
-1.5946735e-02
0.0000000e+00
5.6814563e-02
-2.6366848e-03
0.0000000e+00
0.0000000e+00
7.1893826e-02
-1.6447034e-02
6.5004252e-02
-5.2768374e-03
6.8518505e-02
-7.8871259e-03
7.1445182e-02
0.0000000e+00
0.0000000e+00
3.6012970e-02
-1.1061707e-02
-1.0433540e-02
0.0000000e+00
0.0000000e+00
7.3344722e-02
-1.7786110e-02
6.8457238e-02
5.2587096e-02
-1.6051164e-02
-1.2880517e-02
7.4216753e-02
0.0000000e+00
0.0000000e+00
0.0000000e+00
0.0000000e+00
0.0000000e+00
7.4039854e-02
-1.5189998e-02
-1.8810814e-02
6.4076953e-02
0.0000000e+00
0.0000000e+00
0.0000000e+00
0.0000000e+00
-1.4627814e-02
4.2790622e-02
0.0000000e+00
0.0000000e+00
7.2828747e-02
-1.7320488e-02
0.0000000e+00
0.0000000e+00
-1.9477326e-02
5.8876481e-02
-1.9226255e-02
7.0618130e-02
0.0000000e+00
5.5023752e-02
0.0000000e+00
0.0000000e+00
6.2997386e-02
-2.9995693e-03
-6.0000280e-03
6.6446416e-02
-1.4282971e-02
3.6797050e-02
0.0000000e+00
0.0000000e+00
6.9333360e-02
-8.9666257e-03
-2.0856816e-02
-1.9653365e-02
0.0000000e+00
0.0000000e+00
-1.1863966e-02
7.1236253e-02
5.2788865e-02
6.7459628e-02
0.0000000e+00
0.0000000e+00
0.0000000e+00
0.0000000e+00
-1.4655187e-02
7.2158776e-02
0.0000000e+00
0.0000000e+00
-2.2157004e-02
6.3421905e-02
0.0000000e+00
-1.7301084e-02
7.2084457e-02
0.0000000e+00
0.0000000e+00
0.0000000e+00
-1.9633634e-02
4.6830758e-02
0.0000000e+00
0.0000000e+00
7.1031980e-02
-1.9759294e-02
-2.3070162e-02
0.0000000e+00
0.0000000e+00
5.8591340e-02
0.0000000e+00
6.9039211e-02
-2.1983638e-02
0.0000000e+00
0.0000000e+00
0.0000000e+00
0.0000000e+00
0.0000000e+00
5.3015791e-02
-1.7808447e-02
-3.3504283e-03
3.7560105e-02
6.0739558e-02
-6.6995593e-03
0.0000000e+00
0.0000000e+00
6.4107113e-02
-1.0011788e-02
0.0000000e+00
0.0000000e+00
6.6939674e-02
-2.3514535e-02
5.3058024e-02
0.0000000e+00
0.0000000e+00
6.6159621e-02
-2.3923667e-02
-1.3250953e-02
6.8834178e-02
-1.6379602e-02
6.9797836e-02
0.0000000e+00
0.0000000e+00
-1.7338812e-02
3.2057948e-02
-2.5525732e-02
0.0000000e+00
0.0000000e+00
6.2461697e-02
6.9818668e-02
-1.9358221e-02
-2.3561437e-02
4.7108818e-02
0.0000000e+00
0.0000000e+00
0.0000000e+00
0.0000000e+00
-2.2144543e-02
0.0000000e+00
0.0000000e+00
6.8918563e-02
5.8022987e-02
-2.6728615e-02
0.0000000e+00
0.0000000e+00
0.0000000e+00
0.0000000e+00
-2.4693020e-02
-2.1489536e-02
3.8119063e-02
6.7137651e-02
0.0000000e+00
0.0000000e+00
0.0000000e+00
5.0798599e-02
0.0000000e+00
0.0000000e+00
-3.6862504e-03
5.8238231e-02
-7.3693558e-03
6.1506830e-02
-2.7499223e-02
5.2977383e-02
-1.1013352e-02
6.4268827e-02
-2.6954804e-02
6.4530678e-02
6.6141143e-02
0.0000000e+00
0.0000000e+00
-1.4581854e-02
3.2803729e-02
-2.1081435e-02
6.7133978e-02
-1.8037410e-02
0.0000000e+00
0.0000000e+00
0.0000000e+00
0.0000000e+00
0.0000000e+00
-2.8877432e-02
6.1164062e-02
-2.7642034e-02
0.0000000e+00
0.0000000e+00
4.7235414e-02
0.0000000e+00
6.7239240e-02
0.0000000e+00
-2.1340868e-02
0.0000000e+00
0.0000000e+00
-2.4450798e-02
6.6481233e-02
-3.0409658e-02
5.7120752e-02
0.0000000e+00
0.0000000e+00
0.0000000e+00
0.0000000e+00
-2.7673490e-02
4.1778766e-02
0.0000000e+00
0.0000000e+00
-2.7323179e-02
6.4901546e-02
4.8380926e-02
0.0000000e+00
5.5502169e-02
-4.0036570e-03
-8.0025960e-03
5.8653552e-02
0.0000000e+00
0.0000000e+00
-3.1485971e-02
5.2477363e-02
0.0000000e+00
0.0000000e+00
-1.1960911e-02
6.1327770e-02
0.0000000e+00
0.0000000e+00
6.2554948e-02
-2.9911304e-02
6.3162729e-02
-1.5842428e-02
0.0000000e+00
0.0000000e+00
0.0000000e+00
0.0000000e+00
-2.5036499e-02
3.3247218e-02
6.4170972e-02
-1.9610170e-02
0.0000000e+00
0.0000000e+00
-3.2166716e-02
5.9507534e-02
0.0000000e+00
0.0000000e+00
4.7428261e-02
-3.2118905e-02
6.4347655e-02
-2.3225842e-02
0.0000000e+00
0.0000000e+00
6.3718736e-02
-2.6649397e-02
2.8467860e-02
-2.4608804e-02
-3.4038741e-02
5.5834040e-02
0.0000000e+00
0.0000000e+00
4.1761946e-02
-3.2017235e-02
0.0000000e+00
0.0000000e+00
0.0000000e+00
6.2326323e-02
0.0000000e+00
0.0000000e+00
-2.9838825e-02
0.0000000e+00
0.0000000e+00
-3.5484824e-02
5.1629119e-02
0.0000000e+00
4.5772318e-02
5.2541416e-02
-4.2989175e-03
0.0000000e+00
0.0000000e+00
5.5557009e-02
-8.5917497e-03
6.0224637e-02
-3.2750309e-02
-1.2842985e-02
5.8125753e-02
0.0000000e+00
0.0000000e+00
-3.1998649e-02
3.6680516e-02
0.0000000e+00
0.0000000e+00
-1.7016999e-02
0.0000000e+00
0.0000000e+00
5.9907414e-02
4.6967104e-02
6.0916245e-02
-2.1077635e-02
-3.6441319e-02
-3.5338677e-02
5.7477195e-02
0.0000000e+00
0.0000000e+00
6.1150037e-02
0.0000000e+00
0.0000000e+00
-2.4987794e-02
0.0000000e+00
0.0000000e+00
-2.8925262e-02
2.8925071e-02
0.0000000e+00
0.0000000e+00
-3.7559472e-02
5.4156948e-02
0.0000000e+00
0.0000000e+00
6.0635608e-02
-2.8709136e-02
-3.6966600e-02
4.2071670e-02
0.0000000e+00
0.0000000e+00
0.0000000e+00
0.0000000e+00
5.9414770e-02
-3.2201976e-02
-3.9368056e-02
5.0342873e-02
0.0000000e+00
4.2983070e-02
-4.5679640e-03
4.9367245e-02
0.0000000e+00
0.0000000e+00
-2.8468059e-02
2.4607770e-02
-9.1286199e-03
5.2228592e-02
5.7540227e-02
-3.6720991e-02
3.6721632e-02
0.0000000e+00
0.0000000e+00
-3.5425477e-02
5.4674171e-02
-1.3647107e-02
0.0000000e+00
5.6386422e-02
-1.8088603e-02
0.0000000e+00
0.0000000e+00
4.6135187e-02
0.0000000e+00
0.0000000e+00
-4.0735021e-02
0.0000000e+00
0.0000000e+00
-3.8338374e-02
5.7380680e-02
-2.2418002e-02
5.5072844e-02
0.0000000e+00
0.0000000e+00
-2.6599610e-02
5.7656772e-02
0.0000000e+00
0.0000000e+00
-3.6679979e-02
3.1998869e-02
0.0000000e+00
0.0000000e+00
0.0000000e+00
5.2080173e-02
-4.0899917e-02
0.0000000e+00
4.1605990e-02
-4.1604899e-02
-3.0596953e-02
5.7241663e-02
0.0000000e+00
5.6176100e-02
0.0000000e+00
-3.4372751e-02
-4.3072928e-02
0.0000000e+00
4.8637506e-02
0.0000000e+00
-3.3246424e-02
2.5035819e-02
0.0000000e+00
0.0000000e+00
0.0000000e+00
0.0000000e+00
-4.2070452e-02
0.0000000e+00
4.0024184e-02
3.6967240e-02
4.5992073e-02
-4.8064166e-03
4.8681241e-02
0.0000000e+00
-3.7889186e-02
0.0000000e+00
-9.6043944e-03
5.4510575e-02
5.0986420e-02
-1.4359918e-02
0.0000000e+00
0.0000000e+00
-1.9039141e-02
5.2613471e-02
0.0000000e+00
0.0000000e+00
4.4823699e-02
-4.4822365e-02
5.2302409e-02
-4.1108504e-02
5.3578224e-02
-2.3608150e-02
-3.2803770e-02
2.1080868e-02
-4.1760676e-02
3.2017522e-02
0.0000000e+00
0.0000000e+00
0.0000000e+00
0.0000000e+00
-2.8032765e-02
5.3882014e-02
-4.6133548e-02
4.9614407e-02
4.0735953e-02
-4.3994248e-02
0.0000000e+00
5.3551301e-02
-3.2278411e-02
0.0000000e+00
0.0000000e+00
0.0000000e+00
0.0000000e+00
0.0000000e+00
0.0000000e+00
-3.6310170e-02
-4.1777555e-02
2.7673481e-02
5.2625109e-02
-3.2059647e-02
0.0000000e+00
0.0000000e+00
1.7338300e-02
4.6513919e-02
-4.6512555e-02
3.6441900e-02
-4.6965137e-02
0.0000000e+00
0.0000000e+00
0.0000000e+00
3.6907341e-02
0.0000000e+00
0.0000000e+00
4.2429369e-02
-5.0096130e-03
5.1151082e-02
-4.0093046e-02
-1.0009713e-02
4.4929292e-02
4.7077648e-02
-1.4967272e-02
4.3073989e-02
-4.8635751e-02
-1.9849539e-02
4.8604436e-02
0.0000000e+00
0.0000000e+00
-3.8117733e-02
2.1489445e-02
-4.3592580e-02
4.9182583e-02
0.0000000e+00
0.0000000e+00
3.2119207e-02
0.0000000e+00
0.0000000e+00
4.9525455e-02
-2.4623878e-02
-4.7425974e-02
0.0000000e+00
0.0000000e+00
4.9843080e-02
-2.9257650e-02
0.0000000e+00
0.0000000e+00
3.9368819e-02
-5.0340652e-02
0.0000000e+00
0.0000000e+00
4.6777043e-02
-4.6775803e-02
4.9582705e-02
-3.3718139e-02
0.0000000e+00
0.0000000e+00
1.7808439e-02
-3.7559874e-02
2.7642114e-02
-4.7232818e-02
-3.7972644e-02
4.8781067e-02
-4.9612772e-02
4.3995291e-02
0.0000000e+00
0.0000000e+00
0.0000000e+00
0.0000000e+00
-5.1626343e-02
3.5485327e-02
-4.1988757e-02
0.0000000e+00
3.3644844e-02
4.7482476e-02
0.0000000e+00
-5.1726648e-03
3.8693544e-02
0.0000000e+00
0.0000000e+00
4.0988300e-02
-1.0334776e-02
0.0000000e+00
0.0000000e+00
0.0000000e+00
-1.5454406e-02
-5.2078038e-02
0.0000000e+00
4.0900744e-02
4.2964533e-02
-4.7105953e-02
2.3561373e-02
-3.6797635e-02
1.4283444e-02
-2.0499984e-02
4.4377040e-02
3.1486258e-02
-5.2473940e-02
0.0000000e+00
0.0000000e+00
-4.5734901e-02
4.5735940e-02
-2.5440199e-02
4.5241147e-02
0.0000000e+00
0.0000000e+00
0.0000000e+00
0.0000000e+00
3.7560087e-02
-5.4154195e-02
-3.0243933e-02
4.5559857e-02
4.3593507e-02
-4.9181189e-02
-4.6827815e-02
1.9633561e-02
-3.4880247e-02
4.5357034e-02
0.0000000e+00
0.0000000e+00
-5.2973215e-02
2.7499344e-02
1.1060919e-02
-3.6014963e-02