# vtk DataFile Version 4.0
vtk output
ASCII
DATASET UNSTRUCTURED_GRID
POINTS 2601 float
0.0000000e+00 0.0000000e+00 0.0000000e+00 
0.0000000e+00 2.0000000e-02 0.0000000e+00 
2.0000000e-02 0.0000000e+00 0.0000000e+00 
2.0000000e-02 2.0000000e-02 0.0000000e+00 
3.9999999e-02 0.0000000e+00 0.0000000e+00 
0.0000000e+00 3.9999999e-02 0.0000000e+00 
3.9999999e-02 2.0000000e-02 0.0000000e+00 
2.0000000e-02 3.9999999e-02 0.0000000e+00 
3.9999999e-02 3.9999999e-02 0.0000000e+00 
5.9999999e-02 0.0000000e+00 0.0000000e+00 
0.0000000e+00 5.9999999e-02 0.0000000e+00 
5.9999999e-02 2.0000000e-02 0.0000000e+00 
2.0000000e-02 5.9999999e-02 0.0000000e+00 
3.9999999e-02 5.9999999e-02 0.0000000e+00 
5.9999999e-02 3.9999999e-02 0.0000000e+00 
7.9999998e-02 0.0000000e+00 0.0000000e+00 
0.0000000e+00 7.9999998e-02 0.0000000e+00 
7.9999998e-02 2.0000000e-02 0.0000000e+00 
2.0000000e-02 7.9999998e-02 0.0000000e+00 
5.9999999e-02 5.9999999e-02 0.0000000e+00 
7.9999998e-02 3.9999999e-02 0.0000000e+00 
3.9999999e-02 7.9999998e-02 0.0000000e+00 
5.9999999e-02 7.9999998e-02 0.0000000e+00 
7.9999998e-02 5.9999999e-02 0.0000000e+00 
1.0000000e-01 0.0000000e+00 0.0000000e+00 
0.0000000e+00 1.0000000e-01 0.0000000e+00 
1.0000000e-01 2.0000000e-02 0.0000000e+00 
2.0000000e-02 1.0000000e-01 0.0000000e+00 
3.9999999e-02 1.0000000e-01 0.0000000e+00 
1.0000000e-01 3.9999999e-02 0.0000000e+00 
7.9999998e-02 7.9999998e-02 0.0000000e+00 
1.0000000e-01 5.9999999e-02 0.0000000e+00 
5.9999999e-02 1.0000000e-01 0.0000000e+00 
1.2000000e-01 0.0000000e+00 0.0000000e+00 
0.0000000e+00 1.2000000e-01 0.0000000e+00 
1.2000000e-01 2.0000000e-02 0.0000000e+00 
2.0000000e-02 1.2000000e-01 0.0000000e+00 
1.2000000e-01 3.9999999e-02 0.0000000e+00 
3.9999999e-02 1.2000000e-01 0.0000000e+00 
1.0000000e-01 7.9999998e-02 0.0000000e+00 
7.9999998e-02 1.0000000e-01 0.0000000e+00 
1.2000000e-01 5.9999999e-02 0.0000000e+00 
5.9999999e-02 1.2000000e-01 0.0000000e+00 
0.0000000e+00 1.4000000e-01 0.0000000e+00 
1.4000000e-01 0.0000000e+00 0.0000000e+00 
1.0000000e-01 1.0000000e-01 0.0000000e+00 
2.0000000e-02 1.4000000e-01 0.0000000e+00 
1.4000000e-01 2.0000000e-02 0.0000000e+00 
1.2000000e-01 7.9999998e-02 0.0000000e+00 
7.9999998e-02 1.2000000e-01 0.0000000e+00 
3.9999999e-02 1.4000000e-01 0.0000000e+00 
1.4000000e-01 3.9999999e-02 0.0000000e+00 
1.4000000e-01 5.9999999e-02 0.0000000e+00 
5.9999999e-02 1.4000000e-01 0.0000000e+00 
1.2000000e-01 1.0000000e-01 0.0000000e+00 
1.0000000e-01 1.2000000e-01 0.0000000e+00 
1.6000000e-01 0.0000000e+00 0.0000000e+00 
0.0000000e+00 1.6000000e-01 0.0000000e+00 
1.6000000e-01 2.0000000e-02 0.0000000e+00 
7.9999998e-02 1.4000000e-01 0.0000000e+00 
2.0000000e-02 1.6000000e-01 0.0000000e+00 
1.4000000e-01 7.9999998e-02 0.0000000e+00 
1.6000000e-01 3.9999999e-02 0.0000000e+00 
3.9999999e-02 1.6000000e-01 0.0000000e+00 
1.2000000e-01 1.2000000e-01 0.0000000e+00 
1.6000000e-01 5.9999999e-02 0.0000000e+00 
5.9999999e-02 1.6000000e-01 0.0000000e+00 
1.0000000e-01 1.4000000e-01 0.0000000e+00 
1.4000000e-01 1.0000000e-01 0.0000000e+00 
1.6000000e-01 7.9999998e-02 0.0000000e+00 
7.9999998e-02 1.6000000e-01 0.0000000e+00 
0.0000000e+00 1.8000001e-01 0.0000000e+00 
1.8000001e-01 0.0000000e+00 0.0000000e+00 
1.8000001e-01 2.0000000e-02 0.0000000e+00 
2.0000000e-02 1.8000001e-01 0.0000000e+00 
3.9999999e-02 1.8000001e-01 0.0000000e+00 
1.8000001e-01 3.9999999e-02 0.0000000e+00 
1.2000000e-01 1.4000000e-01 0.0000000e+00 
1.4000000e-01 1.2000000e-01 0.0000000e+00 
1.0000000e-01 1.6000000e-01 0.0000000e+00 
1.6000000e-01 1.0000000e-01 0.0000000e+00 
1.8000001e-01 5.9999999e-02 0.0000000e+00 
5.9999999e-02 1.8000001e-01 0.0000000e+00 
7.9999998e-02 1.8000001e-01 0.0000000e+00 
1.8000001e-01 7.9999998e-02 0.0000000e+00 
1.4000000e-01 1.4000000e-01 0.0000000e+00 
1.2000000e-01 1.6000000e-01 0.0000000e+00 
1.6000000e-01 1.2000000e-01 0.0000000e+00 
0.0000000e+00 2.0000000e-01 0.0000000e+00 
2.0000000e-01 0.0000000e+00 0.0000000e+00 
2.0000000e-01 2.0000000e-02 0.0000000e+00 
2.0000000e-02 2.0000000e-01 0.0000000e+00 
2.0000000e-01 3.9999999e-02 0.0000000e+00 
3.9999999e-02 2.0000000e-01 0.0000000e+00 
1.0000000e-01 1.8000001e-01 0.0000000e+00 
1.8000001e-01 1.0000000e-01 0.0000000e+00 
2.0000000e-01 5.9999999e-02 0.0000000e+00 
5.9999999e-02 2.0000000e-01 0.0000000e+00 
1.4000000e-01 1.6000000e-01 0.0000000e+00 
1.6000000e-01 1.4000000e-01 0.0000000e+00 
2.0000000e-01 7.9999998e-02 0.0000000e+00 
7.9999998e-02 2.0000000e-01 0.0000000e+00 
1.8000001e-01 1.2000000e-01 0.0000000e+00 
1.2000000e-01 1.8000001e-01 0.0000000e+00 
2.2000000e-01 0.0000000e+00 0.0000000e+00 
0.0000000e+00 2.2000000e-01 0.0000000e+00 
2.2000000e-01 2.0000000e-02 0.0000000e+00 
2.0000000e-02 2.2000000e-01 0.0000000e+00 
2.2000000e-01 3.9999999e-02 0.0000000e+00 
3.9999999e-02 2.2000000e-01 0.0000000e+00 
1.0000000e-01 2.0000000e-01 0.0000000e+00 
2.0000000e-01 1.0000000e-01 0.0000000e+00 
1.6000000e-01 1.6000000e-01 0.0000000e+00 
2.2000000e-01 5.9999999e-02 0.0000000e+00 
5.9999999e-02 2.2000000e-01 0.0000000e+00 
1.8000001e-01 1.4000000e-01 0.0000000e+00 
1.4000000e-01 1.8000001e-01 0.0000000e+00 
2.0000000e-01 1.2000000e-01 0.0000000e+00 
1.2000000e-01 2.0000000e-01 0.0000000e+00 
7.9999998e-02 2.2000000e-01 0.0000000e+00 
2.2000000e-01 7.9999998e-02 0.0000000e+00 
2.3999999e-01 0.0000000e+00 0.0000000e+00 
0.0000000e+00 2.3999999e-01 0.0000000e+00 
2.3999999e-01 2.0000000e-02 0.0000000e+00 
1.8000001e-01 1.6000000e-01 0.0000000e+00 
1.6000000e-01 1.8000001e-01 0.0000000e+00 
2.0000000e-02 2.3999999e-01 0.0000000e+00 
2.2000000e-01 1.0000000e-01 0.0000000e+00 
1.0000000e-01 2.2000000e-01 0.0000000e+00 
3.9999999e-02 2.3999999e-01 0.0000000e+00 
2.3999999e-01 3.9999999e-02 0.0000000e+00 
1.4000000e-01 2.0000000e-01 0.0000000e+00 
2.0000000e-01 1.4000000e-01 0.0000000e+00 
2.3999999e-01 5.9999999e-02 0.0000000e+00 
5.9999999e-02 2.3999999e-01 0.0000000e+00 
2.2000000e-01 1.2000000e-01 0.0000000e+00 
1.2000000e-01 2.2000000e-01 0.0000000e+00 
7.9999998e-02 2.3999999e-01 0.0000000e+00 
2.3999999e-01 7.9999998e-02 0.0000000e+00 
1.8000001e-01 1.8000001e-01 0.0000000e+00 
2.0000000e-01 1.6000000e-01 0.0000000e+00 
1.6000000e-01 2.0000000e-01 0.0000000e+00 
1.0000000e-01 2.3999999e-01 0.0000000e+00 
2.3999999e-01 1.0000000e-01 0.0000000e+00 
0.0000000e+00 2.5999999e-01 0.0000000e+00 
2.5999999e-01 0.0000000e+00 0.0000000e+00 
1.4000000e-01 2.2000000e-01 0.0000000e+00 
2.2000000e-01 1.4000000e-01 0.0000000e+00 
2.0000000e-02 2.5999999e-01 0.0000000e+00 
2.5999999e-01 2.0000000e-02 0.0000000e+00 
3.9999999e-02 2.5999999e-01 0.0000000e+00 
2.5999999e-01 3.9999999e-02 0.0000000e+00 
5.9999999e-02 2.5999999e-01 0.0000000e+00 
2.5999999e-01 5.9999999e-02 0.0000000e+00 
2.3999999e-01 1.2000000e-01 0.0000000e+00 
1.2000000e-01 2.3999999e-01 0.0000000e+00 
1.8000001e-01 2.0000000e-01 0.0000000e+00 
2.0000000e-01 1.8000001e-01 0.0000000e+00 
2.2000000e-01 1.6000000e-01 0.0000000e+00 
7.9999998e-02 2.5999999e-01 0.0000000e+00 
2.5999999e-01 7.9999998e-02 0.0000000e+00 
1.6000000e-01 2.2000000e-01 0.0000000e+00 
2.3999999e-01 1.4000000e-01 0.0000000e+00 
1.4000000e-01 2.3999999e-01 0.0000000e+00 
1.0000000e-01 2.5999999e-01 0.0000000e+00 
2.5999999e-01 1.0000000e-01 0.0000000e+00 
2.8000000e-01 0.0000000e+00 0.0000000e+00 
0.0000000e+00 2.8000000e-01 0.0000000e+00 
2.0000000e-02 2.8000000e-01 0.0000000e+00 
2.8000000e-01 2.0000000e-02 0.0000000e+00 
2.8000000e-01 3.9999999e-02 0.0000000e+00 
3.9999999e-02 2.8000000e-01 0.0000000e+00 
2.0000000e-01 2.0000000e-01 0.0000000e+00 
1.8000001e-01 2.2000000e-01 0.0000000e+00 
2.2000000e-01 1.8000001e-01 0.0000000e+00 
2.8000000e-01 5.9999999e-02 0.0000000e+00 
2.5999999e-01 1.2000000e-01 0.0000000e+00 
1.2000000e-01 2.5999999e-01 0.0000000e+00 
5.9999999e-02 2.8000000e-01 0.0000000e+00 
2.3999999e-01 1.6000000e-01 0.0000000e+00 
1.6000000e-01 2.3999999e-01 0.0000000e+00 
7.9999998e-02 2.8000000e-01 0.0000000e+00 
2.8000000e-01 7.9999998e-02 0.0000000e+00 
1.4000000e-01 2.5999999e-01 0.0000000e+00 
2.5999999e-01 1.4000000e-01 0.0000000e+00 
2.2000000e-01 2.0000000e-01 0.0000000e+00 
1.0000000e-01 2.8000000e-01 0.0000000e+00 
2.0000000e-01 2.2000000e-01 0.0000000e+00 
2.8000000e-01 1.0000000e-01 0.0000000e+00 
1.8000001e-01 2.3999999e-01 0.0000000e+00 
3.0000001e-01 0.0000000e+00 0.0000000e+00 
2.3999999e-01 1.8000001e-01 0.0000000e+00 
0.0000000e+00 3.0000001e-01 0.0000000e+00 
3.0000001e-01 2.0000000e-02 0.0000000e+00 
2.0000000e-02 3.0000001e-01 0.0000000e+00 
3.9999999e-02 3.0000001e-01 0.0000000e+00 
3.0000001e-01 3.9999999e-02 0.0000000e+00 
1.2000000e-01 2.8000000e-01 0.0000000e+00 
2.8000000e-01 1.2000000e-01 0.0000000e+00 
1.6000000e-01 2.5999999e-01 0.0000000e+00 
2.5999999e-01 1.6000000e-01 0.0000000e+00 
5.9999999e-02 3.0000001e-01 0.0000000e+00 
3.0000001e-01 5.9999999e-02 0.0000000e+00 
7.9999998e-02 3.0000001e-01 0.0000000e+00 
3.0000001e-01 7.9999998e-02 0.0000000e+00 
2.2000000e-01 2.2000000e-01 0.0000000e+00 
2.3999999e-01 2.0000000e-01 0.0000000e+00 
2.0000000e-01 2.3999999e-01 0.0000000e+00 
1.4000000e-01 2.8000000e-01 0.0000000e+00 
2.8000000e-01 1.4000000e-01 0.0000000e+00 
1.0000000e-01 3.0000001e-01 0.0000000e+00 
2.5999999e-01 1.8000001e-01 0.0000000e+00 
1.8000001e-01 2.5999999e-01 0.0000000e+00 
3.0000001e-01 1.0000000e-01 0.0000000e+00 
0.0000000e+00 3.1999999e-01 0.0000000e+00 
3.1999999e-01 0.0000000e+00 0.0000000e+00 
2.0000000e-02 3.1999999e-01 0.0000000e+00 
3.1999999e-01 2.0000000e-02 0.0000000e+00 
3.9999999e-02 3.1999999e-01 0.0000000e+00 
1.6000000e-01 2.8000000e-01 0.0000000e+00 
3.1999999e-01 3.9999999e-02 0.0000000e+00 
2.8000000e-01 1.6000000e-01 0.0000000e+00 
1.2000000e-01 3.0000001e-01 0.0000000e+00 
3.0000001e-01 1.2000000e-01 0.0000000e+00 
2.2000000e-01 2.3999999e-01 0.0000000e+00 
5.9999999e-02 3.1999999e-01 0.0000000e+00 
2.3999999e-01 2.2000000e-01 0.0000000e+00 
3.1999999e-01 5.9999999e-02 0.0000000e+00 
2.0000000e-01 2.5999999e-01 0.0000000e+00 
2.5999999e-01 2.0000000e-01 0.0000000e+00 
[...]
POINT_DATA 2601
FIELD FieldData 1
TEMPERATURE 1 2601  float
-0.0000000e+00
0.0000000e+00
-5.9078392e-02
-5.9326429e-02
-1.1792363e-01
0.0000000e+00
-1.1842000e-01
-5.9161477e-02
-1.1809168e-01
-1.7630348e-01
0.0000000e+00
-1.7704853e-01
-5.8699332e-02
-1.1717010e-01
-1.7656030e-01
-2.3398753e-01
0.0000000e+00
-2.3498157e-01
-5.7950459e-02
-1.7518504e-01
-2.3433852e-01
-1.1567616e-01
-1.7295398e-01
-2.3251815e-01
-2.9074815e-01
0.0000000e+00
-2.9199126e-01
-5.6933388e-02
-1.1364685e-01
-2.9119998e-01
-2.2956187e-01
-2.8894565e-01
-1.6992246e-01
-3.4636131e-01
0.0000000e+00
-3.4785333e-01
-5.5664290e-02
-3.4692159e-01
-1.1111445e-01
-2.8527972e-01
-2.2554308e-01
-3.4424683e-01
-1.6613868e-01
0.0000000e+00
-4.0060756e-01
-2.8029332e-01
-5.4158270e-02
-4.0234777e-01
-3.3989024e-01
-2.2052576e-01
-1.0810910e-01
-4.0128446e-01
-3.9820489e-01
-1.6164769e-01
-3.3396032e-01
-2.7406588e-01
-4.5327276e-01
0.0000000e+00
-4.5525986e-01
-2.1456960e-01
-5.2429173e-02
-3.9317983e-01
-4.5407465e-01
-1.0465841e-01
-3.2655150e-01
-4.5060787e-01
-1.5649073e-01
-2.6667142e-01
-3.8633454e-01
-4.4493935e-01
-2.0772919e-01
0.0000000e+00
-5.0414914e-01
-5.0638092e-01
-5.0489686e-02
-1.0078769e-01
-5.0508410e-01
-3.1775171e-01
-3.7777799e-01
-2.5817761e-01
-4.3721062e-01
-5.0124925e-01
-1.5070556e-01
-2.0005457e-01
-4.9496487e-01
-3.6761159e-01
-3.0764136e-01
-4.2754459e-01
0.0000000e+00
-5.5303586e-01
-5.5550921e-01
-4.8351537e-02
-5.5411142e-01
-9.6520327e-02
-2.4864642e-01
-4.8638803e-01
-5.4992896e-01
-1.4432707e-01
-3.5592785e-01
-4.1605547e-01
-5.4305851e-01
-1.9159193e-01
-4.7565484e-01
-2.9629388e-01
-5.9973997e-01
0.0000000e+00
-6.0245049e-01
-4.6025731e-02
-6.0096252e-01
-9.1878250e-02
-2.3813504e-01
-5.3367186e-01
-4.0284732e-01
-5.9645396e-01
-1.3738802e-01
-4.6289167e-01
-3.4281129e-01
-5.2191752e-01
-2.8377709e-01
-1.8238458e-01
-5.8902919e-01
-6.4407718e-01
0.0000000e+00
-6.4701909e-01
-4.4821334e-01
-3.8801512e-01
-4.3522794e-02
-5.7887363e-01
-2.2669709e-01
-8.6882457e-02
-6.4545161e-01
-3.2833982e-01
-5.0793314e-01
-6.4063919e-01
-1.2991971e-01
-5.6614727e-01
-2.7015463e-01
-1.7247403e-01
-6.3269317e-01
-4.3172449e-01
-4.9184337e-01
-3.7164631e-01
-2.1438397e-01
-6.2181175e-01
0.0000000e+00
-6.8587255e-01
-3.1258667e-01
-5.5099809e-01
-4.0853012e-02
-6.8903846e-01
-8.1553474e-02
-6.8740171e-01
-1.2195282e-01
-6.8230814e-01
-6.0816538e-01
-2.5548750e-01
-4.1352144e-01
-4.7376168e-01
-5.3355962e-01
-1.6190088e-01
-6.7387533e-01
-3.5382313e-01
-5.9191096e-01
-2.9562205e-01
-2.0124611e-01
-6.6231287e-01
-7.2496110e-01
0.0000000e+00
-3.8026676e-02
-7.2834200e-01
-7.2664571e-01
-7.5911812e-02
-4.5379236e-01
-3.9369476e-01
-5.1395297e-01
-7.2129381e-01
-6.4780056e-01
-2.3983565e-01
-1.1351800e-01
-5.7318974e-01
-3.3462471e-01
-1.5070584e-01
-7.1240932e-01
-2.7751535e-01
-6.3050306e-01
-4.9228916e-01
-1.8733408e-01
-4.3203345e-01
-7.0021224e-01
-3.7233201e-01
-7.6118851e-01
-5.5212921e-01
0.0000000e+00
-7.6477361e-01
-3.5054248e-02
-6.9978379e-02
-7.6302665e-01
-2.2325948e-01
-6.8489009e-01
-3.1412950e-01
-6.1056793e-01
-1.0464651e-01
-7.5743926e-01
-1.3893043e-01
-7.4813908e-01
-4.6867278e-01
-5.2884579e-01
-4.0858030e-01
-2.5833660e-01
-6.6661400e-01
-1.7269957e-01
-5.8812732e-01
-3.4952050e-01
-7.3535484e-01
0.0000000e+00
-7.9441190e-01
-3.1946536e-02
-7.9818839e-01
-6.3774750e-02
-2.9241723e-01
-7.9639894e-01
-6.4553607e-01
-2.0582080e-01
-7.1928066e-01
-4.4320595e-01
-9.5370643e-02
-5.0344902e-01
-7.9059875e-01
-3.8352871e-01
-5.6330132e-01
-1.2661760e-01
-7.8091925e-01
-2.3815781e-01
-7.0009238e-01
-6.2179142e-01
-3.2534972e-01
-1.5739618e-01
-7.6759648e-01
-4.7604668e-01
-2.6957038e-01
-6.7794502e-01
0.0000000e+00
-8.2450008e-01
-2.8714797e-02
-5.3620285e-01
-4.1599268e-01
-8.2845348e-01
-1.8758383e-01
-7.5082958e-01
-5.7323415e-02
-8.2662868e-01
-5.9550202e-01
-3.5697833e-01
-8.5724086e-02
-8.2063818e-01
-1.1381216e-01
-8.1061608e-01
-7.3079759e-01
-2.1705404e-01
-2.9991320e-01
-6.5297478e-01
-5.0694233e-01
-4.4674903e-01
-1.4147986e-01
-7.9680455e-01
-3.8714221e-01
-5.6678092e-01
-2.4567527e-01
-7.0765638e-01
-8.5133439e-01
0.0000000e+00
-8.5544831e-01
-2.5370823e-02
-3.2903436e-01
-1.6861574e-01
-6.2530273e-01
-7.7940601e-01
-8.5359442e-01
-5.0647937e-02
-8.4743583e-01
-7.5742133e-02
-2.7330938e-01
-6.8154109e-01
-1.9510381e-01
-4.7563824e-01
-7.5860083e-01
-1.0056114e-01
-8.3710855e-01
-4.1567802e-01
-5.3574175e-01
-3.5677475e-01
-5.9504133e-01
-8.2285917e-01
-1.2500928e-01
-7.3454386e-01
-2.2082222e-01
-6.5257043e-01
-2.9980981e-01
-8.0489200e-01
-1.4898689e-01
-8.7480879e-01
0.0000000e+00
-8.7906539e-01
-2.1926980e-02
-4.3773022e-02
-8.7718785e-01
-5.0249487e-01
-4.4241127e-01
-5.6229448e-01
-3.8296124e-01
-8.7088329e-01
-2.4564153e-01
-6.5461800e-02
-7.0736706e-01
-7.8338689e-01
-1.7238931e-01
-3.2501689e-01
-8.6028880e-01
-6.2084985e-01
-8.6913802e-02
-1.0804598e-01
-8.4565407e-01
-7.5849545e-01
-1.9510551e-01
-2.6942220e-01
-6.7718399e-01
-4.6720624e-01
-5.2720189e-01
-4.0743664e-01
-1.2877110e-01
-8.2718384e-01
-3.4876528e-01
-8.9483076e-01
0.0000000e+00
-5.8649153e-01
-8.9921063e-01
-1.8396204e-02
-8.9731419e-01
-3.6724519e-02
-7.3034376e-01
-2.1701644e-01
-8.9088577e-01
-5.4921795e-02
-1.4899664e-01
-8.0505568e-01
-6.4409596e-01
-2.9201165e-01
-7.2921678e-02
-8.8006288e-01
-4.2993185e-01
-4.8979583e-01
-2.3799218e-01
-6.9903690e-01
-7.7941537e-01
-1.6862340e-01
-5.4953521e-01
-3.7081179e-01
-9.0654284e-02
-8.6509717e-01
-3.1322882e-01
-6.0819119e-01
-8.4619266e-01
-1.0804550e-01
-9.1132128e-01
0.0000000e+00
-9.1580373e-01
-1.4791980e-02
-1.8754388e-01
-7.5037998e-01
-9.1389263e-01
-2.9529361e-02
-2.5789592e-01
-6.6467983e-01
-1.2501583e-01
-8.2352316e-01
-9.0736252e-01
-4.5057029e-01
-4.4162445e-02
-3.9113730e-01
-5.1035464e-01
-8.9635104e-01
-5.8638416e-02
-5.6959653e-01
-3.3290836e-01
-7.1804160e-01
-2.0564103e-01
-1.4147893e-01
-7.9722738e-01
-7.2901107e-02
-8.8111085e-01
-6.2731147e-01
-2.7654225e-01
-8.6184460e-01
-8.6890340e-02
-1.5733892e-01
-4.0858936e-01
-4.6804425e-01
-7.6740634e-01
-2.2278109e-01
-6.8247628e-01
0.0000000e+00
-9.2421520e-01
-1.1128292e-02
-9.2877859e-01
-5.2736044e-01
-3.5011023e-01
-9.2685664e-01
-2.2215467e-02
-8.3872217e-01
-1.0054076e-01
-9.2024732e-01
-3.3225488e-02
-2.9388279e-01
-5.8732134e-01
-4.4119433e-02
-9.0908796e-01
-1.7249446e-01
-7.3414862e-01
-1.1377965e-01
-8.1187290e-01
-2.3885581e-01
-6.4381272e-01
-8.9363176e-01
-5.4855403e-02
-4.2553762e-01
-3.6692646e-01
-4.8507470e-01
-8.7408018e-01
-5.4380429e-01
-3.0912626e-01
-6.5388113e-02
-6.9743490e-01
-1.8681297e-01
-7.8138840e-01
-1.2652521e-01
-9.3346167e-01
0.0000000e+00
-7.4195610e-03
-2.5323787e-01
-6.0100245e-01
-9.3808365e-01
-8.5059935e-01
-7.5667836e-02
-1.4811603e-02
-9.3615431e-01
-2.2153892e-02
-9.2948824e-01
-1.3867518e-01
-7.4728632e-01
-6.5767282e-01
-2.0026608e-01
-9.1822261e-01
-3.8226289e-01
-2.9421616e-02
-4.4136414e-01
-8.2331306e-01
-8.5638210e-02
-5.0037462e-01
-3.2417876e-01
-9.0261066e-01
-3.6587596e-02
-2.6741084e-01
-5.5823922e-01
-1.5015313e-01
-7.0966691e-01
-4.3622315e-02
-9.5231615e-02
-7.9230136e-01
-8.8285273e-01
-6.1387110e-01
-2.1232130e-01
0.0000000e+00
-9.3902415e-01
-9.4368190e-01
-3.6805810e-03
-5.0493620e-02
-8.5911250e-01
-3.9612767e-01
-9.4174838e-01
-7.3472732e-03
-3.3790112e-01
-4.5533425e-01
-1.0435749e-01
-7.5758272e-01
-9.3504840e-01
-6.6705710e-01
-1.6058390e-01
-1.0991660e-02
-2.8049874e-01
-5.1377487e-01
-1.4603087e-02
-9.2371869e-01
-8.3151013e-01
-5.7165522e-02
-5.7045913e-01
-2.2467200e-01
-9.0801245e-01
-1.8169196e-02
-7.1919972e-01
-1.1289898e-01
-6.2467152e-01
-1.7114049e-01
-6.3594915e-02
-8.0012369e-01
-8.8812900e-01
-2.1676548e-02
0.0000000e+00
0.0000000e+00
0.0000000e+00
0.0000000e+00
-2.5111515e-02
0.0000000e+00
-9.4088078e-01
-8.6423004e-01
-5.2540416e-01
-2.3629060e-01
7.3553558e-05
-9.4555098e-01
-6.7581570e-01
-1.2046143e-01
-9.4361669e-01
1.4740831e-04
-6.9717877e-02
-7.6497227e-01
2.1625648e-04
-9.3690574e-01
-5.8051997e-01
-1.8127385e-01
-8.3643299e-01
-2.8461885e-02
2.7675414e-04
-9.2555469e-01
0.0000000e+00
0.0000000e+00
-7.5431153e-02
-9.0981656e-01
3.2677368e-04
0.0000000e+00
-7.2613513e-01
-1.2927091e-01
-6.3323653e-01
0.0000000e+00
0.0000000e+00
-8.0481333e-01
-3.1719647e-02
-8.8988972e-01
3.6442641e-04
0.0000000e+00
0.0000000e+00
-8.0365196e-02
-6.8234134e-01
3.8638548e-04
-8.6593431e-01
-7.6939487e-01
-3.4881584e-02
-9.3902415e-01
0.0000000e+00
-9.4368368e-01
3.8275404e-03
7.6418752e-03
-5.8885926e-01
-1.3787565e-01
-9.4175184e-01
0.0000000e+00
1.1424114e-02
-9.3505311e-01
0.0000000e+00
0.0000000e+00
3.8404253e-04
-8.3806413e-01
0.0000000e+00
-9.2372388e-01
1.5157164e-02
-3.7930999e-02
-7.3029423e-01
0.0000000e+00
0.0000000e+00
-6.3935488e-01
-8.6808272e-02
1.8824946e-02
-9.0801704e-01
-8.0634671e-01
3.3218661e-04
0.0000000e+00
0.0000000e+00
-8.8813061e-01
2.2411540e-02
-6.8645680e-01
-4.0543213e-02
0.0000000e+00
0.0000000e+00
0.0000000e+00
0.0000000e+00
2.5900275e-02
-8.6422408e-01
1.5032967e-04
-7.7078247e-01
0.0000000e+00
0.0000000e+00
-9.3346167e-01
0.0000000e+00
7.5660073e-03
-9.3808752e-01
0.0000000e+00
-9.3616158e-01
1.5105379e-02
-9.2949831e-01
2.2585761e-02
0.0000000e+00
0.0000000e+00
-8.3640975e-01
2.9272903e-02
-9.1823435e-01
-4.4534814e-02
-6.4323902e-01
2.9976472e-02
-7.3140210e-01
-4.5153551e-04
-9.0262228e-01
3.7247714e-02
0.0000000e+00
0.0000000e+00
-8.0475223e-01
3.2510679e-02
0.0000000e+00
0.0000000e+00
-8.8286078e-01
0.0000000e+00
0.0000000e+00
4.4369854e-02
-2.6233704e-03
-6.8678117e-01
0.0000000e+00
0.0000000e+00
0.0000000e+00
0.0000000e+00
-7.6924872e-01
3.5603885e-02
-8.5911041e-01
5.1313050e-02
0.0000000e+00
-9.2421520e-01
-9.2878479e-01
1.1273687e-02
0.0000000e+00
0.0000000e+00
2.2507370e-02
-9.2686844e-01
-9.2026401e-01
-8.3148491e-01
3.3655312e-02
5.8048040e-02
-6.4337623e-01
-4.2060623e-03
3.8626488e-02
-7.2995555e-01
4.4673290e-02
0.0000000e+00
-9.0910846e-01
0.0000000e+00
0.0000000e+00
0.0000000e+00
0.0000000e+00
0.0000000e+00
0.0000000e+00
5.5517726e-02
-8.9365429e-01
-8.0004787e-01
6.4550601e-02
0.0000000e+00
0.0000000e+00
4.2006388e-02
-6.8566769e-01
-8.7410170e-01
6.6144831e-02
0.0000000e+00
0.0000000e+00
-7.6479208e-01
7.0815265e-02
0.0000000e+00
0.0000000e+00
7.6509930e-02
-8.5061479e-01
0.0000000e+00
-9.1132128e-01
0.0000000e+00
0.0000000e+00
-9.1581255e-01
1.4935598e-02
2.9817887e-02
0.0000000e+00
0.0000000e+00
4.3198559e-02
-6.4214313e-01
-9.1390973e-01
-8.2331270e-01
8.6567119e-02
-7.2572541e-01
0.0000000e+00
0.0000000e+00
-9.0738726e-01
4.4587828e-02
7.6908365e-02
0.0000000e+00
0.0000000e+00
5.9187707e-02
-8.9638251e-01
9.6271016e-02
0.0000000e+00
-7.9227030e-01
0.0000000e+00
7.3560119e-02
-8.8114792e-01
0.0000000e+00
0.0000000e+00
-6.8148732e-01
8.2901336e-02
8.7646805e-02
-8.6188585e-01
0.0000000e+00
0.0000000e+00
0.0000000e+00
-7.5747776e-01
0.0000000e+00
1.0557182e-01
0.0000000e+00
1.0138731e-01
-8.3876544e-01
0.0000000e+00
0.0000000e+00
-6.3795489e-01
8.6813442e-02
0.0000000e+00
-8.9483076e-01
0.0000000e+00
0.0000000e+00
1.8537190e-02
-8.9922243e-01
0.0000000e+00
0.0000000e+00
-8.9733732e-01
3.7007861e-02
1.1471735e-01
1.1444741e-01
-7.1899116e-01
-8.1191689e-01
-8.9091969e-01
5.5339810e-02
0.0000000e+00
0.0000000e+00
7.3461957e-02
-8.8010716e-01
-7.8142774e-01
1.2756518e-01
0.0000000e+00
0.0000000e+00
0.0000000e+00
9.1303252e-02
0.0000000e+00
-8.6515146e-01
1.2257265e-01
-6.7526543e-01
0.0000000e+00
0.0000000e+00
0.0000000e+00
0.0000000e+00
-8.4625709e-01
1.0879119e-01
0.0000000e+00
0.0000000e+00
-7.4736869e-01
1.3984889e-01
1.2585013e-01
0.0000000e+00
0.0000000e+00
-8.2359856e-01
1.2919450e-01
-6.3196158e-01
0.0000000e+00
0.0000000e+00
-8.7480879e-01
0.0000000e+00
2.2064438e-02
-7.0969921e-01
1.5143533e-01
-8.7908053e-01
-7.9731578e-01
1.4239858e-01
0.0000000e+00
0.0000000e+00
4.4049304e-02
-8.7721765e-01
0.0000000e+00
0.0000000e+00
0.0000000e+00
-8.7092733e-01
6.5869406e-02
0.0000000e+00
0.0000000e+00
-8.6034715e-01
8.7440595e-02
0.0000000e+00
0.0000000e+00
-7.6751620e-01
1.5834537e-01
0.0000000e+00
0.0000000e+00
-6.6884077e-01
1.6218504e-01
0.0000000e+00
0.0000000e+00
1.0867851e-01
-8.4572709e-01
1.2949713e-01
-8.2727283e-01
0.0000000e+00
-7.3427898e-01
0.0000000e+00
1.7358311e-01
0.0000000e+00
0.0000000e+00
1.7131536e-01
-6.2396592e-01
-8.0516338e-01
1.4980674e-01
0.0000000e+00
0.0000000e+00
0.0000000e+00
0.0000000e+00
0.0000000e+00
0.0000000e+00
-6.9766557e-01
1.8797094e-01
0.0000000e+00
-8.5133439e-01
2.5503904e-02
0.0000000e+00
0.0000000e+00
-7.7954686e-01
1.6951139e-01
-8.5546702e-01
5.0915383e-02
-8.5363126e-01
7.6136537e-02
-8.4749067e-01
0.0000000e+00
0.0000000e+00
-5.7917261e-01
1.8013963e-01
1.0107046e-01
0.0000000e+00
0.0000000e+00
-8.3718163e-01
1.8850532e-01
-7.5054348e-01
-6.5779144e-01
2.0136003e-01
1.2562005e-01
-8.2295150e-01
0.0000000e+00
0.0000000e+00
0.0000000e+00
0.0000000e+00
0.0000000e+00
-8.0500573e-01
1.4968647e-01
2.0666735e-01
-7.1825016e-01
0.0000000e+00
0.0000000e+00
0.0000000e+00
0.0000000e+00
2.1316831e-01
-6.1356336e-01
0.0000000e+00
0.0000000e+00
-7.8352588e-01
1.7316736e-01
0.0000000e+00
0.0000000e+00
2.2386125e-01
-6.8276334e-01
1.9595444e-01
-7.5866598e-01
0.0000000e+00
-8.2450008e-01
0.0000000e+00
0.0000000e+00
-8.2847589e-01
2.8842749e-02
5.7580475e-02
-8.2667285e-01
2.2426461e-01
-5.6941861e-01
0.0000000e+00
0.0000000e+00
-8.2070410e-01
8.6102888e-02
2.1793045e-01
2.3990086e-01
0.0000000e+00
0.0000000e+00
1.1430072e-01
-8.1070423e-01
-6.4411354e-01
-7.3055518e-01
0.0000000e+00
0.0000000e+00
0.0000000e+00
0.0000000e+00
1.4206463e-01
-7.9691619e-01
0.0000000e+00
0.0000000e+00
2.3896575e-01
-6.9930267e-01
0.0000000e+00
1.6928381e-01
-7.7954382e-01
0.0000000e+00
0.0000000e+00
0.0000000e+00
2.5472653e-01
-6.0270613e-01
0.0000000e+00
0.0000000e+00
-7.5876933e-01
1.9584437e-01
2.5891587e-01
0.0000000e+00
0.0000000e+00
-6.6500491e-01
0.0000000e+00
-7.3475015e-01
2.2162721e-01
0.0000000e+00
0.0000000e+00
0.0000000e+00
0.0000000e+00
0.0000000e+00
-7.9441190e-01
2.6768270e-01
3.2068737e-02
-5.5769861e-01
-7.9821455e-01
6.4020149e-02
0.0000000e+00
0.0000000e+00
-7.9645061e-01
9.5731899e-02
0.0000000e+00
0.0000000e+00
-7.9067588e-01
2.7761266e-01
-6.2774611e-01
0.0000000e+00
0.0000000e+00
-7.0762128e-01
2.4650565e-01
1.2708279e-01
-7.8102237e-01
1.5795176e-01
-7.6772708e-01
0.0000000e+00
0.0000000e+00
2.8030011e-01
-5.1283622e-01
2.7034286e-01
0.0000000e+00
0.0000000e+00
-6.7750007e-01
-7.5099051e-01
1.8821669e-01
2.9492521e-01
-5.8765459e-01
0.0000000e+00
0.0000000e+00
0.0000000e+00
0.0000000e+00
2.1775307e-01
0.0000000e+00
0.0000000e+00
-7.3099363e-01
-6.4449018e-01
2.9298750e-01
0.0000000e+00
0.0000000e+00
0.0000000e+00
0.0000000e+00
2.4643217e-01
3.1012928e-01
-5.4375601e-01
-7.0789492e-01
0.0000000e+00
0.0000000e+00
0.0000000e+00
-7.6118851e-01
0.0000000e+00
0.0000000e+00
3.5170209e-02
-7.6480347e-01
7.0211120e-02
-7.6308572e-01
3.1428146e-01
-6.0870278e-01
1.0498874e-01
-7.5752747e-01
2.7411923e-01
-6.8183273e-01
-7.4825686e-01
0.0000000e+00
0.0000000e+00
1.3937034e-01
-4.9991807e-01
3.2449037e-01
-7.3550367e-01
1.7322361e-01
0.0000000e+00
0.0000000e+00
0.0000000e+00
0.0000000e+00
0.0000000e+00
3.0067110e-01
-6.5292931e-01
3.3399406e-01
0.0000000e+00
0.0000000e+00
-5.7017428e-01
0.0000000e+00
-7.1946335e-01
0.0000000e+00
2.0641579e-01
0.0000000e+00
0.0000000e+00
2.3881236e-01
-7.0031369e-01
3.2593498e-01
-6.2129796e-01
0.0000000e+00
0.0000000e+00
0.0000000e+00
0.0000000e+00
3.5207939e-01
-5.2929199e-01
0.0000000e+00
0.0000000e+00
2.7027583e-01
-6.7821205e-01
-7.2496110e-01
0.0000000e+00
-7.2837555e-01
3.8136028e-02
7.6131158e-02
-7.2671193e-01
0.0000000e+00
0.0000000e+00
3.4974098e-01
-5.8704317e-01
0.0000000e+00
0.0000000e+00
1.1384012e-01
-7.2139257e-01
0.0000000e+00
0.0000000e+00
-6.5329772e-01
3.0066422e-01
-7.1254110e-01
1.5111910e-01
0.0000000e+00
0.0000000e+00
0.0000000e+00
0.0000000e+00
3.6735806e-01
-4.8511940e-01
-7.0037824e-01
1.8782502e-01
0.0000000e+00
0.0000000e+00
3.2982954e-01
-6.2569571e-01
0.0000000e+00
0.0000000e+00
-5.5030769e-01
3.7192613e-01
-6.8509287e-01
2.2381490e-01
0.0000000e+00
0.0000000e+00
-6.6685796e-01
2.5894484e-01
-4.4118595e-01
3.8239443e-01
3.5761589e-01
-5.9552193e-01
0.0000000e+00
0.0000000e+00
-5.1112264e-01
3.9220929e-01
0.0000000e+00
0.0000000e+00
0.0000000e+00
-6.4582765e-01
0.0000000e+00
0.0000000e+00
2.9306912e-01
0.0000000e+00
0.0000000e+00
3.8386047e-01
-5.6289274e-01
0.0000000e+00
-6.8587255e-01
-6.8907547e-01
4.0955499e-02
0.0000000e+00
0.0000000e+00
-6.8747473e-01
8.1758894e-02
-6.2213993e-01
3.2603914e-01
1.2225410e-01
-6.8241686e-01
0.0000000e+00
0.0000000e+00
4.1063967e-01
-4.7000816e-01
0.0000000e+00
0.0000000e+00
1.6228661e-01
0.0000000e+00
0.0000000e+00
-6.7401999e-01
-5.2792138e-01
-6.6249460e-01
2.0170306e-01
4.0838349e-01
3.5770229e-01
-5.9591973e-01
0.0000000e+00
0.0000000e+00
-6.4802146e-01
0.0000000e+00
0.0000000e+00
2.4035065e-01
0.0000000e+00
0.0000000e+00
4.2602980e-01
-4.2603084e-01
0.0000000e+00
0.0000000e+00
3.8790143e-01
-5.6728417e-01
0.0000000e+00
0.0000000e+00
-6.3076693e-01
2.7807656e-01
4.3103182e-01
-4.9077970e-01
0.0000000e+00
0.0000000e+00
0.0000000e+00
0.0000000e+00
-6.1088032e-01
3.1472722e-01
4.1647357e-01
-5.3634775e-01
0.0000000e+00
-6.4407718e-01
4.3618239e-02
-6.4705920e-01
0.0000000e+00
0.0000000e+00
4.4118807e-01
-3.8239512e-01
8.7073624e-02
-6.4553070e-01
-5.8849609e-01
4.5152348e-01
-4.5152271e-01
0.0000000e+00
0.0000000e+00
3.5014766e-01
-6.4075685e-01
1.3019969e-01
0.0000000e+00
-6.3284945e-01
1.7283174e-01
0.0000000e+00
0.0000000e+00
-5.0323367e-01
0.0000000e+00
0.0000000e+00
4.4325438e-01
0.0000000e+00
0.0000000e+00
3.8418087e-01
-6.2200737e-01
2.1480653e-01
-5.6373680e-01
0.0000000e+00
0.0000000e+00
2.5596189e-01
-6.0840195e-01
0.0000000e+00
0.0000000e+00
4.7000954e-01
-4.1063961e-01
0.0000000e+00
0.0000000e+00
0.0000000e+00
-5.3671753e-01
4.1666755e-01
0.0000000e+00
-4.6806645e-01
4.6806714e-01
2.9613641e-01
-5.9219164e-01
0.0000000e+00
-5.7351905e-01
0.0000000e+00
3.3516893e-01
4.4744650e-01
0.0000000e+00
-5.0755143e-01
0.0000000e+00
4.8512328e-01
-3.6735815e-01
0.0000000e+00
0.0000000e+00
0.0000000e+00
0.0000000e+00
4.9078059e-01
0.0000000e+00
-5.9973997e-01
-4.3103117e-01
-6.0249323e-01
4.6114028e-02
-6.0104680e-01
0.0000000e+00
3.7289825e-01
0.0000000e+00
9.2054941e-02
-5.5251348e-01
-5.9657913e-01
1.3764644e-01
0.0000000e+00
0.0000000e+00
1.8271409e-01
-5.8919507e-01
0.0000000e+00
0.0000000e+00
-4.7635409e-01
4.7635463e-01
-5.2929306e-01
4.0916282e-01
-5.7908064e-01
2.2708522e-01
4.9992809e-01
-3.2448891e-01
5.1112431e-01
-3.9220881e-01
0.0000000e+00
0.0000000e+00
0.0000000e+00
0.0000000e+00
2.7058879e-01
-5.6639665e-01
5.0323415e-01
-5.0396913e-01
-4.4325376e-01
4.4380078e-01
0.0000000e+00
-5.5129206e-01
3.1305504e-01
0.0000000e+00
0.0000000e+00
0.0000000e+00
0.0000000e+00
0.0000000e+00
0.0000000e+00
3.5431552e-01
5.2929562e-01
-3.5207886e-01
-5.3390175e-01
5.1285207e-01
0.0000000e+00
0.0000000e+00
-2.8029981e-01
-4.7664991e-01
4.7665042e-01
-4.0838286e-01
5.2792180e-01
0.0000000e+00
0.0000000e+00
0.0000000e+00
-5.5303586e-01
0.0000000e+00
0.0000000e+00
-5.5555397e-01
4.8432611e-02
-5.1434809e-01
3.9420283e-01
9.6682400e-02
-5.5419964e-01
-5.5005985e-01
1.4456378e-01
-4.4744590e-01
5.0755179e-01
1.9189316e-01
-5.4323167e-01
0.0000000e+00
0.0000000e+00
5.4376376e-01
-3.1012803e-01
4.3255064e-01
-4.9274343e-01
0.0000000e+00
0.0000000e+00
-3.7192559e-01
0.0000000e+00
0.0000000e+00
-5.3388733e-01
2.3848896e-01
5.5030823e-01
0.0000000e+00
0.0000000e+00
-5.2217603e-01
2.8417158e-01
0.0000000e+00
0.0000000e+00
-4.1647294e-01
5.3634781e-01
0.0000000e+00
0.0000000e+00
-4.6919334e-01
4.6919388e-01
-5.0823629e-01
3.2876348e-01
0.0000000e+00
0.0000000e+00
-2.6768309e-01
5.5770934e-01
-3.3399355e-01
5.7017523e-01
3.7208903e-01
-4.9219373e-01
5.0396955e-01
-4.4380021e-01
0.0000000e+00
0.0000000e+00
0.0000000e+00
0.0000000e+00
5.6289238e-01
-3.8385987e-01
4.1397473e-01
0.0000000e+00
-5.0414914e-01
-4.7416282e-01
0.0000000e+00
5.0563481e-02
-5.0642699e-01
0.0000000e+00
0.0000000e+00
-5.0517470e-01
1.0093505e-01
0.0000000e+00
0.0000000e+00
0.0000000e+00
1.5092047e-01
5.3671765e-01