# vtk DataFile Version 4.0
vtk output
ASCII
DATASET UNSTRUCTURED_GRID
POINTS 2601 float
0.0000000e+00 0.0000000e+00 0.0000000e+00 
0.0000000e+00 2.0000000e-02 0.0000000e+00 
2.0000000e-02 0.0000000e+00 0.0000000e+00 
2.0000000e-02 2.0000000e-02 0.0000000e+00 
3.9999999e-02 0.0000000e+00 0.0000000e+00 
0.0000000e+00 3.9999999e-02 0.0000000e+00 
3.9999999e-02 2.0000000e-02 0.0000000e+00 
2.0000000e-02 3.9999999e-02 0.0000000e+00 
3.9999999e-02 3.9999999e-02 0.0000000e+00 
5.9999999e-02 0.0000000e+00 0.0000000e+00 
0.0000000e+00 5.9999999e-02 0.0000000e+00 
5.9999999e-02 2.0000000e-02 0.0000000e+00 
2.0000000e-02 5.9999999e-02 0.0000000e+00 
3.9999999e-02 5.9999999e-02 0.0000000e+00 
5.9999999e-02 3.9999999e-02 0.0000000e+00 
7.9999998e-02 0.0000000e+00 0.0000000e+00 
0.0000000e+00 7.9999998e-02 0.0000000e+00 
7.9999998e-02 2.0000000e-02 0.0000000e+00 
2.0000000e-02 7.9999998e-02 0.0000000e+00 
5.9999999e-02 5.9999999e-02 0.0000000e+00 
7.9999998e-02 3.9999999e-02 0.0000000e+00 
3.9999999e-02 7.9999998e-02 0.0000000e+00 
5.9999999e-02 7.9999998e-02 0.0000000e+00 
7.9999998e-02 5.9999999e-02 0.0000000e+00 
1.0000000e-01 0.0000000e+00 0.0000000e+00 
0.0000000e+00 1.0000000e-01 0.0000000e+00 
1.0000000e-01 2.0000000e-02 0.0000000e+00 
2.0000000e-02 1.0000000e-01 0.0000000e+00 
3.9999999e-02 1.0000000e-01 0.0000000e+00 
1.0000000e-01 3.9999999e-02 0.0000000e+00 
7.9999998e-02 7.9999998e-02 0.0000000e+00 
1.0000000e-01 5.9999999e-02 0.0000000e+00 
5.9999999e-02 1.0000000e-01 0.0000000e+00 
1.2000000e-01 0.0000000e+00 0.0000000e+00 
0.0000000e+00 1.2000000e-01 0.0000000e+00 
1.2000000e-01 2.0000000e-02 0.0000000e+00 
2.0000000e-02 1.2000000e-01 0.0000000e+00 
1.2000000e-01 3.9999999e-02 0.0000000e+00 
3.9999999e-02 1.2000000e-01 0.0000000e+00 
1.0000000e-01 7.9999998e-02 0.0000000e+00 
7.9999998e-02 1.0000000e-01 0.0000000e+00 
1.2000000e-01 5.9999999e-02 0.0000000e+00 
5.9999999e-02 1.2000000e-01 0.0000000e+00 
0.0000000e+00 1.4000000e-01 0.0000000e+00 
1.4000000e-01 0.0000000e+00 0.0000000e+00 
1.0000000e-01 1.0000000e-01 0.0000000e+00 
2.0000000e-02 1.4000000e-01 0.0000000e+00 
1.4000000e-01 2.0000000e-02 0.0000000e+00 
1.2000000e-01 7.9999998e-02 0.0000000e+00 
7.9999998e-02 1.2000000e-01 0.0000000e+00 
3.9999999e-02 1.4000000e-01 0.0000000e+00 
1.4000000e-01 3.9999999e-02 0.0000000e+00 
1.4000000e-01 5.9999999e-02 0.0000000e+00 
5.9999999e-02 1.4000000e-01 0.0000000e+00 
1.2000000e-01 1.0000000e-01 0.0000000e+00 
1.0000000e-01 1.2000000e-01 0.0000000e+00 
1.6000000e-01 0.0000000e+00 0.0000000e+00 
0.0000000e+00 1.6000000e-01 0.0000000e+00 
1.6000000e-01 2.0000000e-02 0.0000000e+00 
7.9999998e-02 1.4000000e-01 0.0000000e+00 
2.0000000e-02 1.6000000e-01 0.0000000e+00 
1.4000000e-01 7.9999998e-02 0.0000000e+00 
1.6000000e-01 3.9999999e-02 0.0000000e+00 
3.9999999e-02 1.6000000e-01 0.0000000e+00 
1.2000000e-01 1.2000000e-01 0.0000000e+00 
1.6000000e-01 5.9999999e-02 0.0000000e+00 
5.9999999e-02 1.6000000e-01 0.0000000e+00 
1.0000000e-01 1.4000000e-01 0.0000000e+00 
1.4000000e-01 1.0000000e-01 0.0000000e+00 
1.6000000e-01 7.9999998e-02 0.0000000e+00 
7.9999998e-02 1.6000000e-01 0.0000000e+00 
0.0000000e+00 1.8000001e-01 0.0000000e+00 
1.8000001e-01 0.0000000e+00 0.0000000e+00 
1.8000001e-01 2.0000000e-02 0.0000000e+00 
2.0000000e-02 1.8000001e-01 0.0000000e+00 
3.9999999e-02 1.8000001e-01 0.0000000e+00 
1.8000001e-01 3.9999999e-02 0.0000000e+00 
1.2000000e-01 1.4000000e-01 0.0000000e+00 
1.4000000e-01 1.2000000e-01 0.0000000e+00 
1.0000000e-01 1.6000000e-01 0.0000000e+00 
1.6000000e-01 1.0000000e-01 0.0000000e+00 
1.8000001e-01 5.9999999e-02 0.0000000e+00 
5.9999999e-02 1.8000001e-01 0.0000000e+00 
7.9999998e-02 1.8000001e-01 0.0000000e+00 
1.8000001e-01 7.9999998e-02 0.0000000e+00 
1.4000000e-01 1.4000000e-01 0.0000000e+00 
1.2000000e-01 1.6000000e-01 0.0000000e+00 
1.6000000e-01 1.2000000e-01 0.0000000e+00 
0.0000000e+00 2.0000000e-01 0.0000000e+00 
2.0000000e-01 0.0000000e+00 0.0000000e+00 
2.0000000e-01 2.0000000e-02 0.0000000e+00 
2.0000000e-02 2.0000000e-01 0.0000000e+00 
2.0000000e-01 3.9999999e-02 0.0000000e+00 
3.9999999e-02 2.0000000e-01 0.0000000e+00 
1.0000000e-01 1.8000001e-01 0.0000000e+00 
1.8000001e-01 1.0000000e-01 0.0000000e+00 
2.0000000e-01 5.9999999e-02 0.0000000e+00 
5.9999999e-02 2.0000000e-01 0.0000000e+00 
1.4000000e-01 1.6000000e-01 0.0000000e+00 
1.6000000e-01 1.4000000e-01 0.0000000e+00 
2.0000000e-01 7.9999998e-02 0.0000000e+00 
7.9999998e-02 2.0000000e-01 0.0000000e+00 
1.8000001e-01 1.2000000e-01 0.0000000e+00 
1.2000000e-01 1.8000001e-01 0.0000000e+00 
2.2000000e-01 0.0000000e+00 0.0000000e+00 
0.0000000e+00 2.2000000e-01 0.0000000e+00 
2.2000000e-01 2.0000000e-02 0.0000000e+00 
2.0000000e-02 2.2000000e-01 0.0000000e+00 
2.2000000e-01 3.9999999e-02 0.0000000e+00 
3.9999999e-02 2.2000000e-01 0.0000000e+00 
1.0000000e-01 2.0000000e-01 0.0000000e+00 
2.0000000e-01 1.0000000e-01 0.0000000e+00 
1.6000000e-01 1.6000000e-01 0.0000000e+00 
2.2000000e-01 5.9999999e-02 0.0000000e+00 
5.9999999e-02 2.2000000e-01 0.0000000e+00 
1.8000001e-01 1.4000000e-01 0.0000000e+00 
1.4000000e-01 1.8000001e-01 0.0000000e+00 
2.0000000e-01 1.2000000e-01 0.0000000e+00 
1.2000000e-01 2.0000000e-01 0.0000000e+00 
7.9999998e-02 2.2000000e-01 0.0000000e+00 
2.2000000e-01 7.9999998e-02 0.0000000e+00 
2.3999999e-01 0.0000000e+00 0.0000000e+00 
0.0000000e+00 2.3999999e-01 0.0000000e+00 
2.3999999e-01 2.0000000e-02 0.0000000e+00 
1.8000001e-01 1.6000000e-01 0.0000000e+00 
1.6000000e-01 1.8000001e-01 0.0000000e+00 
2.0000000e-02 2.3999999e-01 0.0000000e+00 
2.2000000e-01 1.0000000e-01 0.0000000e+00 
1.0000000e-01 2.2000000e-01 0.0000000e+00 
3.9999999e-02 2.3999999e-01 0.0000000e+00 
2.3999999e-01 3.9999999e-02 0.0000000e+00 
1.4000000e-01 2.0000000e-01 0.0000000e+00 
2.0000000e-01 1.4000000e-01 0.0000000e+00 
2.3999999e-01 5.9999999e-02 0.0000000e+00 
5.9999999e-02 2.3999999e-01 0.0000000e+00 
2.2000000e-01 1.2000000e-01 0.0000000e+00 
1.2000000e-01 2.2000000e-01 0.0000000e+00 
7.9999998e-02 2.3999999e-01 0.0000000e+00 
2.3999999e-01 7.9999998e-02 0.0000000e+00 
1.8000001e-01 1.8000001e-01 0.0000000e+00 
2.0000000e-01 1.6000000e-01 0.0000000e+00 
1.6000000e-01 2.0000000e-01 0.0000000e+00 
1.0000000e-01 2.3999999e-01 0.0000000e+00 
2.3999999e-01 1.0000000e-01 0.0000000e+00 
0.0000000e+00 2.5999999e-01 0.0000000e+00 
2.5999999e-01 0.0000000e+00 0.0000000e+00 
1.4000000e-01 2.2000000e-01 0.0000000e+00 
2.2000000e-01 1.4000000e-01 0.0000000e+00 
2.0000000e-02 2.5999999e-01 0.0000000e+00 
2.5999999e-01 2.0000000e-02 0.0000000e+00 
3.9999999e-02 2.5999999e-01 0.0000000e+00 
2.5999999e-01 3.9999999e-02 0.0000000e+00 
5.9999999e-02 2.5999999e-01 0.0000000e+00 
2.5999999e-01 5.9999999e-02 0.0000000e+00 
2.3999999e-01 1.2000000e-01 0.0000000e+00 
1.2000000e-01 2.3999999e-01 0.0000000e+00 
1.8000001e-01 2.0000000e-01 0.0000000e+00 
2.0000000e-01 1.8000001e-01 0.0000000e+00 
2.2000000e-01 1.6000000e-01 0.0000000e+00 
7.9999998e-02 2.5999999e-01 0.0000000e+00 
2.5999999e-01 7.9999998e-02 0.0000000e+00 
1.6000000e-01 2.2000000e-01 0.0000000e+00 
2.3999999e-01 1.4000000e-01 0.0000000e+00 
1.4000000e-01 2.3999999e-01 0.0000000e+00 
1.0000000e-01 2.5999999e-01 0.0000000e+00 
2.5999999e-01 1.0000000e-01 0.0000000e+00 
2.8000000e-01 0.0000000e+00 0.0000000e+00 
0.0000000e+00 2.8000000e-01 0.0000000e+00 
2.0000000e-02 2.8000000e-01 0.0000000e+00 
2.8000000e-01 2.0000000e-02 0.0000000e+00 
2.8000000e-01 3.9999999e-02 0.0000000e+00 
3.9999999e-02 2.8000000e-01 0.0000000e+00 
2.0000000e-01 2.0000000e-01 0.0000000e+00 
1.8000001e-01 2.2000000e-01 0.0000000e+00 
2.2000000e-01 1.8000001e-01 0.0000000e+00 
2.8000000e-01 5.9999999e-02 0.0000000e+00 
2.5999999e-01 1.2000000e-01 0.0000000e+00 
1.2000000e-01 2.5999999e-01 0.0000000e+00 
5.9999999e-02 2.8000000e-01 0.0000000e+00 
2.3999999e-01 1.6000000e-01 0.0000000e+00 
1.6000000e-01 2.3999999e-01 0.0000000e+00 
7.9999998e-02 2.8000000e-01 0.0000000e+00 
2.8000000e-01 7.9999998e-02 0.0000000e+00 
1.4000000e-01 2.5999999e-01 0.0000000e+00 
2.5999999e-01 1.4000000e-01 0.0000000e+00 
2.2000000e-01 2.0000000e-01 0.0000000e+00 
1.0000000e-01 2.8000000e-01 0.0000000e+00 
2.0000000e-01 2.2000000e-01 0.0000000e+00 
2.8000000e-01 1.0000000e-01 0.0000000e+00 
1.8000001e-01 2.3999999e-01 0.0000000e+00 
3.0000001e-01 0.0000000e+00 0.0000000e+00 
2.3999999e-01 1.8000001e-01 0.0000000e+00 
0.0000000e+00 3.0000001e-01 0.0000000e+00 
3.0000001e-01 2.0000000e-02 0.0000000e+00 
2.0000000e-02 3.0000001e-01 0.0000000e+00 
3.9999999e-02 3.0000001e-01 0.0000000e+00 
3.0000001e-01 3.9999999e-02 0.0000000e+00 
1.2000000e-01 2.8000000e-01 0.0000000e+00 
2.8000000e-01 1.2000000e-01 0.0000000e+00 
1.6000000e-01 2.5999999e-01 0.0000000e+00 
2.5999999e-01 1.6000000e-01 0.0000000e+00 
5.9999999e-02 3.0000001e-01 0.0000000e+00 
3.0000001e-01 5.9999999e-02 0.0000000e+00 
7.9999998e-02 3.0000001e-01 0.0000000e+00 
3.0000001e-01 7.9999998e-02 0.0000000e+00 
2.2000000e-01 2.2000000e-01 0.0000000e+00 
2.3999999e-01 2.0000000e-01 0.0000000e+00 
2.0000000e-01 2.3999999e-01 0.0000000e+00 
1.4000000e-01 2.8000000e-01 0.0000000e+00 
2.8000000e-01 1.4000000e-01 0.0000000e+00 
1.0000000e-01 3.0000001e-01 0.0000000e+00 
2.5999999e-01 1.8000001e-01 0.0000000e+00 
1.8000001e-01 2.5999999e-01 0.0000000e+00 
3.0000001e-01 1.0000000e-01 0.0000000e+00 
0.0000000e+00 3.1999999e-01 0.0000000e+00 
3.1999999e-01 0.0000000e+00 0.0000000e+00 
2.0000000e-02 3.1999999e-01 0.0000000e+00 
3.1999999e-01 2.0000000e-02 0.0000000e+00 
3.9999999e-02 3.1999999e-01 0.0000000e+00 
1.6000000e-01 2.8000000e-01 0.0000000e+00 
3.1999999e-01 3.9999999e-02 0.0000000e+00 
2.8000000e-01 1.6000000e-01 0.0000000e+00 
1.2000000e-01 3.0000001e-01 0.0000000e+00 
3.0000001e-01 1.2000000e-01 0.0000000e+00 
2.2000000e-01 2.3999999e-01 0.0000000e+00 
5.9999999e-02 3.1999999e-01 0.0000000e+00 
2.3999999e-01 2.2000000e-01 0.0000000e+00 
3.1999999e-01 5.9999999e-02 0.0000000e+00 
2.0000000e-01 2.5999999e-01 0.0000000e+00 
2.5999999e-01 2.0000000e-01 0.0000000e+00 
[...]
POINT_DATA 2601
FIELD FieldData 1
TEMPERATURE 1 2601  float
-0.0000000e+00
0.0000000e+00
-4.9003631e-02
-4.9392618e-02
-9.7813867e-02
0.0000000e+00
-9.8590665e-02
-4.9335528e-02
-9.8476820e-02
-1.4623807e-01
0.0000000e+00
-1.4740106e-01
-4.9027186e-02
-9.7861446e-02
-1.4723225e-01
-1.9408515e-01
0.0000000e+00
-1.9563212e-01
-4.8466593e-02
-1.4631355e-01
-1.9541135e-01
-9.6742511e-02
-1.4464186e-01
-1.9419517e-01
-2.4116626e-01
0.0000000e+00
-2.4309430e-01
-4.7669917e-02
-9.5152289e-02
-2.4282554e-01
-1.9197945e-01
-2.4131970e-01
-1.4226544e-01
-2.8729558e-01
0.0000000e+00
-2.8960085e-01
-4.6650805e-02
-2.8928891e-01
-9.3118005e-02
-2.3857152e-01
-1.8882816e-01
-2.8750291e-01
-1.3922495e-01
0.0000000e+00
-3.3229110e-01
-2.3466040e-01
-4.5422778e-02
-3.3496872e-01
-2.8423649e-01
-1.8479519e-01
-9.0666644e-02
-3.3461890e-01
-3.3256373e-01
-1.3556069e-01
-2.7958399e-01
-2.2965316e-01
-3.7597522e-01
0.0000000e+00
-3.7901899e-01
-1.7993395e-01
-4.3998603e-02
-3.2879552e-01
-3.7863702e-01
-8.7823682e-02
-2.7362484e-01
-3.7632480e-01
-1.3131072e-01
-2.2361602e-01
-3.2342321e-01
-3.7207344e-01
-1.7429486e-01
0.0000000e+00
-4.1817552e-01
-4.2157790e-01
-4.2390238e-02
-8.4612966e-02
-4.2116952e-01
-2.6643762e-01
-3.1653827e-01
-2.1661142e-01
-3.6600560e-01
-4.1861343e-01
-1.2651064e-01
-1.6792504e-01
-4.1389912e-01
-3.0823120e-01
-2.5809649e-01
-3.5822439e-01
0.0000000e+00
-4.5872548e-01
-4.6247733e-01
-4.0608861e-02
-4.6204823e-01
-8.1056789e-02
-2.0869780e-01
-4.0716252e-01
-4.5926201e-01
-1.2119372e-01
-2.9858738e-01
-3.4883162e-01
-4.5410645e-01
-1.6086861e-01
-3.9851752e-01
-2.4867077e-01
-4.9746507e-01
0.0000000e+00
-5.0155544e-01
-3.8664956e-02
-5.0111103e-01
-7.7176087e-02
-1.9992980e-01
-4.4672981e-01
-3.3792323e-01
-4.9810889e-01
-1.1539126e-01
-3.8807660e-01
-2.8768656e-01
-4.3725610e-01
-2.3822536e-01
-1.5316704e-01
-4.9253488e-01
-5.3424138e-01
0.0000000e+00
-5.3865749e-01
-3.7594560e-01
-3.2558894e-01
-3.6568519e-02
-4.8454869e-01
-1.9035886e-01
-7.2990790e-02
-5.3820264e-01
-2.7560347e-01
-4.2580757e-01
-5.3499901e-01
-1.0913304e-01
-4.7428349e-01
-2.2682138e-01
-1.4485982e-01
-5.2903020e-01
-3.6222339e-01
-4.1249904e-01
-3.1191275e-01
-1.8003409e-01
-5.2046633e-01
0.0000000e+00
-5.6890929e-01
-2.6240858e-01
-4.6187028e-01
-3.4329195e-02
-5.7363641e-01
-6.8520166e-02
-5.7317531e-01
-1.0244790e-01
-5.6978452e-01
-5.0944865e-01
-2.1451733e-01
-3.4700271e-01
-3.9743778e-01
-4.4743198e-01
-1.3598529e-01
-5.6344521e-01
-2.9697412e-01
-4.9611586e-01
-2.4816963e-01
-1.6900316e-01
-5.5433667e-01
-6.0133195e-01
0.0000000e+00
-3.1956486e-02
-6.0635340e-01
-6.0588938e-01
-6.3783206e-02
-3.8072437e-01
-3.3037144e-01
-4.3108311e-01
-6.0232574e-01
-5.4260707e-01
-2.0137021e-01
-9.5364250e-02
-4.8059765e-01
-2.8084967e-01
-1.2658125e-01
-5.9564066e-01
-2.3295280e-01
-5.2840161e-01
-4.1293103e-01
-1.5731330e-01
-3.6245450e-01
-5.8602142e-01
-3.1241485e-01
-6.3138145e-01
-4.6301454e-01
0.0000000e+00
-6.3667840e-01
-2.9459905e-02
-5.8798917e-02
-6.3621408e-01
-1.8743661e-01
-5.7362193e-01
-2.6361483e-01
-5.1185519e-01
-8.7910593e-02
-6.3249165e-01
-1.1668573e-01
-6.2548596e-01
-3.9307842e-01
-4.4347951e-01
-3.4272164e-01
-2.1682420e-01
-5.5859220e-01
-1.4501202e-01
-4.9309292e-01
-2.9321757e-01
-6.1539096e-01
0.0000000e+00
-6.5893918e-01
-2.6849106e-02
-6.6449100e-01
-5.3586606e-02
-2.4534546e-01
-6.6402799e-01
-5.4107100e-01
-1.7277369e-01
-6.0236484e-01
-3.7162608e-01
-8.0115907e-02
-4.2210063e-01
-6.6016060e-01
-3.2161945e-01
-4.7223157e-01
-1.0633734e-01
-6.5285987e-01
-1.9985090e-01
-5.8656096e-01
-5.2118611e-01
-2.7286544e-01
-1.3214771e-01
-6.4232504e-01
-3.9898574e-01
-2.2611891e-01
-5.6812024e-01
0.0000000e+00
-6.8389636e-01
-2.4133999e-02
-4.4938353e-01
-3.4867716e-01
-6.8968052e-01
-1.5743981e-01
-6.2871712e-01
-4.8166104e-02
-6.8921989e-01
-4.9905643e-01
-2.9924485e-01
-7.2009943e-02
-6.8522125e-01
-9.5575809e-02
-6.7765158e-01
-6.1219120e-01
-1.8210150e-01
-2.5144729e-01
-5.4717118e-01
-4.2465973e-01
-3.7424469e-01
-1.1877017e-01
-6.6671401e-01
-3.2433853e-01
-4.7479489e-01
-2.0601487e-01
-5.9288836e-01
-7.0615453e-01
0.0000000e+00
-7.1214700e-01
-2.1324826e-02
-2.7569833e-01
-1.4149496e-01
-5.2383184e-01
-6.5257090e-01
-7.1168900e-01
-4.2557888e-02
-7.0757276e-01
-6.3623421e-02
-2.2905463e-01
-5.7093561e-01
-1.6364667e-01
-3.9818341e-01
-6.3537741e-01
-8.4442146e-02
-6.9976109e-01
-3.4800142e-01
-4.4851986e-01
-2.9872844e-01
-4.9821714e-01
-6.8845940e-01
-1.0493074e-01
-6.1527258e-01
-1.8511514e-01
-5.4644954e-01
-2.5108713e-01
-6.7383015e-01
-1.2500104e-01
-7.2562581e-01
0.0000000e+00
-7.3180115e-01
-1.8432196e-02
-3.6783174e-02
-7.3134565e-01
-4.2033920e-01
-3.7006956e-01
-4.7043082e-01
-3.2037577e-01
-7.2712582e-01
-2.0578207e-01
-5.4988157e-02
-5.9238029e-01
-6.5602666e-01
-1.4455903e-01
-2.7196464e-01
-7.1909994e-01
-5.1953661e-01
-7.2978795e-02
-9.0682559e-02
-7.0747489e-01
-6.3518399e-01
-1.6350360e-01
-2.2551903e-01
-5.6681228e-01
-3.9045477e-01
-4.4064483e-01
-3.4052020e-01
-1.0802194e-01
-6.9241160e-01
-2.9154477e-01
-7.4223340e-01
0.0000000e+00
-4.9032572e-01
-7.4856502e-01
-1.5467094e-02
-7.4811161e-01
-3.0863920e-02
-6.1142015e-01
-1.8172529e-01
-7.4380255e-01
-4.6137080e-02
-1.2491342e-01
-6.7406005e-01
-5.3867334e-01
-2.4418597e-01
-6.1229616e-02
-7.3559177e-01
-3.5883015e-01
-4.0880752e-01
-1.9910310e-01
-5.8483809e-01
-6.5254879e-01
-1.4126606e-01
-4.5881194e-01
-3.0955750e-01
-7.6080441e-02
-7.2368640e-01
-2.6160973e-01
-5.0805694e-01
-7.0824522e-01
-9.0623565e-02
-7.5591177e-01
0.0000000e+00
-7.6237226e-01
-1.2440879e-02
-1.5698035e-01
-6.2798738e-01
-7.6192039e-01
-2.4822811e-02
-2.1551539e-01
-5.5555713e-01
-1.0478687e-01
-6.8941325e-01
-7.5753701e-01
-3.7571895e-01
-3.7104130e-02
-3.2619232e-01
-4.2562875e-01
-7.4917209e-01
-4.9239751e-02
-4.7515395e-01
-2.7768955e-01
-6.0046637e-01
-1.7194767e-01
-1.1849100e-01
-6.6731215e-01
-6.1180715e-02
-7.3703235e-01
-5.2357477e-01
-2.3076372e-01
-7.2127384e-01
-7.2873421e-02
-1.3164610e-01
-3.3953905e-01
-3.8894811e-01
-6.4203262e-01
-1.8603867e-01
-5.7006735e-01
0.0000000e+00
-7.6660687e-01
-9.3652410e-03
-7.7316821e-01
-4.3835819e-01
-2.9102969e-01
-7.7271742e-01
-1.8683173e-02
-7.0203710e-01
-8.4258541e-02
-7.6827538e-01
-2.7924161e-02
-2.4493073e-01
-4.8954180e-01
-3.7055429e-02
-7.5978857e-01
-1.4416134e-01
-6.1367887e-01
-9.5268793e-02
-6.7943293e-01
-1.9918886e-01
-5.3698897e-01
-7.4746311e-01
-4.6040781e-02
-3.5304284e-01
-3.0455431e-01
-4.0260404e-01
-7.3145270e-01
-4.5154727e-01
-2.5670072e-01
-5.4840103e-02
-5.8217204e-01
-1.5589289e-01
-6.5354931e-01
-1.0582898e-01
-7.7427649e-01
0.0000000e+00
-6.2521747e-03
-2.1042407e-01
-4.9944511e-01
-7.8091025e-01
-7.1189338e-01
-6.3408300e-02
-1.2468910e-02
-7.8046030e-01
-1.8632807e-02
-7.7597582e-01
-1.1583722e-01
-6.2438506e-01
-5.4823083e-01
-1.6689660e-01
-7.6740074e-01
-3.1679782e-01
-2.4723701e-02
-3.6574909e-01
-6.8889111e-01
-7.1693428e-02
-4.1475725e-01
-2.6878071e-01
-7.5494057e-01
-3.0718705e-02
-2.2185168e-01
-4.6306452e-01
-1.2525252e-01
-5.9217244e-01
-3.6592104e-02
-7.9632826e-02
-6.6252023e-01
-7.3874700e-01
-5.0973552e-01
-1.7627734e-01
0.0000000e+00
-7.7889043e-01
-7.8556800e-01
-3.1139387e-03
-4.2315025e-02
-7.1895319e-01
-3.2764187e-01
-7.8511858e-01
-6.2044384e-03
-2.7966321e-01
-3.7676206e-01
-8.7141640e-02
-6.3279575e-01
-7.8060853e-01
-5.5457425e-01
-1.3343553e-01
-9.2664044e-03
-2.3231360e-01
-4.2534482e-01
-1.2292400e-02
-7.7197999e-01
-6.9566095e-01
-4.7854301e-02
-4.7275507e-01
-1.8622665e-01
-7.5943780e-01
-1.5273018e-02
-5.9985596e-01
-9.4128132e-02
-5.1834375e-01
-1.4198311e-01
-5.3170025e-02
-6.6894424e-01
-7.4313229e-01
-1.8197356e-02
0.0000000e+00
0.0000000e+00
0.0000000e+00
0.0000000e+00
-2.1053726e-02
0.0000000e+00
-7.8043044e-01
-7.2319424e-01
-4.3447691e-01
-1.9550771e-01
3.6977875e-05
-7.8712302e-01
-5.6157434e-01
-1.0005100e-01
-7.8667420e-01
8.5362903e-05
-5.8201697e-02
-6.3881612e-01
1.3800568e-04
-7.8215581e-01
-4.8068723e-01
-1.5012552e-01
-6.9972289e-01
-2.3830920e-02
1.8972789e-04
-7.7350938e-01
0.0000000e+00
0.0000000e+00
-6.2869288e-02
-7.6093936e-01
2.3669950e-04
0.0000000e+00
-6.0546148e-01
-1.0718088e-01
-5.2514720e-01
0.0000000e+00
0.0000000e+00
-6.7278928e-01
-2.6520429e-02
-7.4459493e-01
2.7559069e-04
0.0000000e+00
0.0000000e+00
-6.6721968e-02
-5.6676805e-01
3.0212919e-04
-7.2460544e-01
-6.4241111e-01
-2.9115509e-02
-7.7889043e-01
0.0000000e+00
-7.8556943e-01
3.1879158e-03
6.3752411e-03
-4.8725477e-01
-1.1409687e-01
-7.8512126e-01
0.0000000e+00
9.5427232e-03
-7.8061217e-01
0.0000000e+00
0.0000000e+00
3.0793366e-04
-7.0106661e-01
0.0000000e+00
-7.7198398e-01
1.2672802e-02
-3.1602211e-02
-6.0880315e-01
0.0000000e+00
0.0000000e+00
-5.2995652e-01
-7.1934909e-02
1.5748885e-02
-7.5944108e-01
-6.7404228e-01
2.7131464e-04
0.0000000e+00
0.0000000e+00
-7.4313265e-01
1.8754520e-02
-5.7001662e-01
-3.3635106e-02
0.0000000e+00
0.0000000e+00
0.0000000e+00
0.0000000e+00
2.1672510e-02
-7.2318757e-01
1.2675479e-04
-6.4352912e-01
0.0000000e+00
0.0000000e+00
-7.7427649e-01
0.0000000e+00
6.3261422e-03
-7.8091335e-01
0.0000000e+00
-7.8046614e-01
1.2639759e-02
-7.7598393e-01
1.8909650e-02
0.0000000e+00
0.0000000e+00
-6.9970042e-01
2.4484063e-02
-7.6741022e-01
-3.6867421e-02
-5.3298116e-01
2.5106072e-02
-6.0966384e-01
-3.5859327e-04
-7.5494969e-01
3.1199936e-02
0.0000000e+00
0.0000000e+00
-6.7273289e-01
2.7169827e-02
0.0000000e+00
0.0000000e+00
-7.3875272e-01
0.0000000e+00
0.0000000e+00
3.7162036e-02
-2.0911731e-03
-5.7015073e-01
0.0000000e+00
0.0000000e+00
0.0000000e+00
0.0000000e+00
-6.4227873e-01
2.9716158e-02
-7.1894956e-01
4.2962480e-02
0.0000000e+00
-7.6660687e-01
-7.7317321e-01
9.4389878e-03
0.0000000e+00
0.0000000e+00
1.8853590e-02
-7.7272713e-01
-7.6828933e-01
-6.9563693e-01
2.8200813e-02
4.8571151e-02
-5.3294569e-01
-3.3801098e-03
3.2184683e-02
-6.0850179e-01
3.7438866e-02
0.0000000e+00
-7.5980580e-01
0.0000000e+00
0.0000000e+00
0.0000000e+00
0.0000000e+00
0.0000000e+00
0.0000000e+00
4.6526238e-02
-7.4748212e-01
-6.6887492e-01
5.3960968e-02
0.0000000e+00
0.0000000e+00
3.4847036e-02
-5.6931216e-01
-7.3147106e-01
5.5420730e-02
0.0000000e+00
0.0000000e+00
-6.3865745e-01
5.9117306e-02
0.0000000e+00
0.0000000e+00
6.4078644e-02
-7.1190697e-01
0.0000000e+00
-7.5591177e-01
0.0000000e+00
0.0000000e+00
-7.6237959e-01
1.2513987e-02
2.4991831e-02
0.0000000e+00
0.0000000e+00
3.5787422e-02
-5.3203225e-01
-7.6193482e-01
-6.8889135e-01
7.2453924e-02
-6.0509747e-01
0.0000000e+00
0.0000000e+00
-7.5755817e-01
3.7378918e-02
6.4091295e-02
0.0000000e+00
0.0000000e+00
4.9621586e-02
-7.4919939e-01
8.0500305e-02
0.0000000e+00
-6.6249782e-01
0.0000000e+00
6.1666008e-02
-7.3706514e-01
0.0000000e+00
0.0000000e+00
-5.6602579e-01
6.8781331e-02
7.3456973e-02
-7.2131133e-01
0.0000000e+00
0.0000000e+00
0.0000000e+00
-6.3270217e-01
0.0000000e+00
8.8159196e-02
0.0000000e+00
8.4936358e-02
-7.0207793e-01
0.0000000e+00
0.0000000e+00
-5.2879250e-01
7.1918316e-02
0.0000000e+00
-7.4223340e-01
0.0000000e+00
0.0000000e+00
1.5538994e-02
-7.4857503e-01
0.0000000e+00
0.0000000e+00
-7.4813145e-01
3.1030232e-02
9.6041627e-02
9.5422804e-02
-5.9970170e-01
-6.7947876e-01
-7.4383211e-01
4.6407722e-02
0.0000000e+00
0.0000000e+00
6.1606195e-02
-7.3563105e-01
-6.5359300e-01
1.0670164e-01
0.0000000e+00
0.0000000e+00
0.0000000e+00
7.6559849e-02
0.0000000e+00
-7.2373569e-01
1.0177752e-01
-5.6104058e-01
0.0000000e+00
0.0000000e+00
0.0000000e+00
0.0000000e+00
-7.0830524e-01
9.1200866e-02
0.0000000e+00
0.0000000e+00
-6.2451124e-01
1.1683881e-01
1.0545760e-01
0.0000000e+00
0.0000000e+00
-6.8948627e-01
1.0711028e-01
-5.2406269e-01
0.0000000e+00
0.0000000e+00
-7.2562581e-01
0.0000000e+00
1.8502252e-02
-5.9213889e-01
1.2631172e-01
-7.3181415e-01
-6.6740143e-01
1.1925207e-01
0.0000000e+00
0.0000000e+00
3.6945336e-02
-7.3137152e-01
0.0000000e+00
0.0000000e+00
0.0000000e+00
-7.2716475e-01
5.5252194e-02
0.0000000e+00
0.0000000e+00
-7.1915245e-01
7.3346324e-02
0.0000000e+00
0.0000000e+00
-6.4215237e-01
1.3249649e-01
0.0000000e+00
0.0000000e+00
-5.5721802e-01
1.3506380e-01
0.0000000e+00
0.0000000e+00
9.1150478e-02
-7.0754206e-01
1.0858507e-01
-6.9249564e-01
0.0000000e+00
-6.1382014e-01
0.0000000e+00
1.4508827e-01
0.0000000e+00
0.0000000e+00
1.4209874e-01
-5.1774102e-01
-6.7416477e-01
1.2556624e-01
0.0000000e+00
0.0000000e+00
0.0000000e+00
0.0000000e+00
0.0000000e+00
0.0000000e+00
-5.8247662e-01
1.5689033e-01
0.0000000e+00
-7.0615453e-01
2.1392422e-02
0.0000000e+00
0.0000000e+00
-6.5268129e-01
1.4200333e-01
-7.1216315e-01
4.2714521e-02
-7.1172118e-01
6.3878529e-02
-7.0762146e-01
0.0000000e+00
0.0000000e+00
-4.7965997e-01
1.4918363e-01
8.4797174e-02
0.0000000e+00
0.0000000e+00
-6.9982719e-01
1.5779591e-01
-6.2815809e-01
-5.4831451e-01
1.6779740e-01
1.0538241e-01
-6.8854469e-01
0.0000000e+00
0.0000000e+00
0.0000000e+00
0.0000000e+00
0.0000000e+00
-6.7393774e-01
1.2554380e-01
1.7282842e-01
-6.0069251e-01
0.0000000e+00
0.0000000e+00
0.0000000e+00
0.0000000e+00
1.7691718e-01
-5.0946748e-01
0.0000000e+00
0.0000000e+00
-6.5616155e-01
1.4518671e-01
0.0000000e+00
0.0000000e+00
1.8697734e-01
-5.7039976e-01
1.6421002e-01
-6.3535410e-01
0.0000000e+00
-6.8389636e-01
0.0000000e+00
0.0000000e+00
-6.8969989e-01
2.4198599e-02
4.8316006e-02
-6.8925858e-01
1.8585014e-01
-4.7198370e-01
0.0000000e+00
0.0000000e+00
-6.8527979e-01
7.2254144e-02
1.8250349e-01
2.0004752e-01
0.0000000e+00
0.0000000e+00
9.5915481e-02
-6.7773122e-01
-5.3727394e-01
-6.1163682e-01
0.0000000e+00
0.0000000e+00
0.0000000e+00
0.0000000e+00
1.1920179e-01
-6.6681695e-01
0.0000000e+00
0.0000000e+00
1.9994497e-01
-5.8511871e-01
0.0000000e+00
1.4201270e-01
-6.5270078e-01
0.0000000e+00
0.0000000e+00
0.0000000e+00
2.1209599e-01
-5.0199622e-01
0.0000000e+00
0.0000000e+00
-6.3553977e-01
1.6424407e-01
2.1639940e-01
0.0000000e+00
0.0000000e+00
-5.5590236e-01
0.0000000e+00
-6.1547595e-01
1.8578596e-01
0.0000000e+00
0.0000000e+00
0.0000000e+00
0.0000000e+00
0.0000000e+00
-6.5893918e-01
2.2201747e-01
2.6910285e-02
-4.6269342e-01
-6.6451353e-01
5.3728815e-02
0.0000000e+00
0.0000000e+00
-6.6407305e-01
8.0347635e-02
0.0000000e+00
0.0000000e+00
-6.6022879e-01
2.3170334e-01
-5.2407992e-01
0.0000000e+00
0.0000000e+00
-5.9263623e-01
2.0652053e-01
1.0665943e-01
-6.5295255e-01
1.3255639e-01
-6.4244455e-01
0.0000000e+00
0.0000000e+00
2.3215666e-01
-4.2479268e-01
2.2632021e-01
0.0000000e+00
0.0000000e+00
-5.6713665e-01
-6.2886733e-01
1.5792905e-01
2.4577646e-01
-4.8984766e-01
0.0000000e+00
0.0000000e+00
0.0000000e+00
0.0000000e+00
1.8266469e-01
0.0000000e+00
0.0000000e+00
-6.1237794e-01
-5.3908300e-01
2.4504264e-01
0.0000000e+00
0.0000000e+00
0.0000000e+00
0.0000000e+00
2.0664589e-01
2.5743225e-01
-4.5153189e-01
-5.9311998e-01
0.0000000e+00
0.0000000e+00
0.0000000e+00
-6.3138145e-01
0.0000000e+00
0.0000000e+00
2.9517362e-02
-6.3670403e-01
5.8932737e-02
-6.3626516e-01
2.6254913e-01
-5.0860524e-01
8.8128701e-02
-6.3256884e-01
2.2974877e-01
-5.7122391e-01
-6.2559062e-01
0.0000000e+00
0.0000000e+00
1.1698861e-01
-4.1451609e-01
2.6900208e-01
-6.1552548e-01
1.4539568e-01
0.0000000e+00
0.0000000e+00
0.0000000e+00
0.0000000e+00
0.0000000e+00
2.5184098e-01
-5.4680920e-01
2.7858439e-01
0.0000000e+00
0.0000000e+00
-4.7569355e-01
0.0000000e+00
-6.0253304e-01
0.0000000e+00
1.7323188e-01
0.0000000e+00
0.0000000e+00
2.0037685e-01
-5.8676851e-01
2.7278230e-01
-5.1999199e-01
0.0000000e+00
0.0000000e+00
0.0000000e+00
0.0000000e+00
2.9329228e-01
-4.4100013e-01
0.0000000e+00
0.0000000e+00
2.2670650e-01
-5.6837511e-01
-6.0133195e-01
0.0000000e+00
-6.0638183e-01
3.2010041e-02
6.3908190e-02
-6.0594606e-01
0.0000000e+00
0.0000000e+00
2.9241288e-01
-4.9087742e-01
0.0000000e+00
0.0000000e+00
9.5567971e-02
-6.0241121e-01
0.0000000e+00
0.0000000e+00
-5.4748416e-01
2.5209185e-01
-5.9575617e-01
1.2686387e-01
0.0000000e+00
0.0000000e+00
0.0000000e+00
0.0000000e+00
3.0482662e-01
-4.0261126e-01
-5.8616924e-01
1.5767057e-01
0.0000000e+00
0.0000000e+00
2.7639797e-01
-5.2421767e-01
0.0000000e+00
0.0000000e+00
-4.5964187e-01
3.1060499e-01
-5.7380551e-01
1.8786210e-01
0.0000000e+00
0.0000000e+00
-5.5881685e-01
2.1731091e-01
-3.6568800e-01
3.1694233e-01
2.9948211e-01
-4.9869138e-01
0.0000000e+00
0.0000000e+00
-4.2622939e-01
3.2702762e-01
0.0000000e+00
0.0000000e+00
0.0000000e+00
-5.4134393e-01
0.0000000e+00
0.0000000e+00
2.4588697e-01
0.0000000e+00
0.0000000e+00
3.2119811e-01
-4.7102708e-01
0.0000000e+00
-5.6890929e-01
-5.7366741e-01
3.4378767e-02
0.0000000e+00
0.0000000e+00
-5.7323688e-01
6.8636090e-02
-5.2151698e-01
2.7345684e-01
1.0263684e-01
-5.6987721e-01
0.0000000e+00
0.0000000e+00
3.4200644e-01
-3.9147782e-01
0.0000000e+00
0.0000000e+00
1.3624705e-01
0.0000000e+00
0.0000000e+00
-5.6357002e-01
-4.4133568e-01
-5.5449557e-01
1.6933332e-01
3.4137765e-01
2.9988295e-01
-4.9945721e-01
0.0000000e+00
0.0000000e+00
-5.4280317e-01
0.0000000e+00
0.0000000e+00
2.0176214e-01
0.0000000e+00
0.0000000e+00
3.5348719e-01
-3.5348809e-01
0.0000000e+00
0.0000000e+00
3.2502359e-01
-4.7528145e-01
0.0000000e+00
0.0000000e+00
-5.2863950e-01
2.3339927e-01
3.5991582e-01
-4.0982744e-01
0.0000000e+00
0.0000000e+00
0.0000000e+00
0.0000000e+00
-5.1214111e-01
2.6410905e-01
3.4873167e-01
-4.4910488e-01
0.0000000e+00
-5.3424138e-01
3.6614120e-02
-5.3869057e-01
0.0000000e+00
0.0000000e+00
3.6568984e-01
-3.1694281e-01
7.3097594e-02
-5.3826833e-01
-4.9343503e-01
3.7646228e-01
-3.7646186e-01
0.0000000e+00
0.0000000e+00
2.9375389e-01
-5.3509760e-01
1.0930709e-01
0.0000000e+00
-5.2916247e-01
1.4510059e-01
0.0000000e+00
0.0000000e+00
-4.2105600e-01
0.0000000e+00
0.0000000e+00
3.7086326e-01
0.0000000e+00
0.0000000e+00
3.2219392e-01
-5.2063388e-01
1.8033698e-01
-4.7263995e-01
0.0000000e+00
0.0000000e+00
2.1487562e-01
-5.0965410e-01
0.0000000e+00
0.0000000e+00
3.9147875e-01
-3.4200647e-01
0.0000000e+00
0.0000000e+00
0.0000000e+00
-4.4986939e-01
3.4928691e-01
0.0000000e+00
-3.9125395e-01
3.9125422e-01
2.4857590e-01
-4.9636307e-01
0.0000000e+00
-4.8089179e-01
0.0000000e+00
2.8129673e-01
3.7488970e-01
0.0000000e+00
-4.2523673e-01
0.0000000e+00
4.0261430e-01
-3.0482665e-01
0.0000000e+00
0.0000000e+00
0.0000000e+00
0.0000000e+00
4.0982783e-01
0.0000000e+00
-4.9746507e-01
-3.5991547e-01
-5.0159007e-01
3.8706660e-02
-5.0117975e-01
0.0000000e+00
3.1289649e-01
0.0000000e+00
7.7273875e-02
-4.6336225e-01
-4.9821177e-01
1.1555052e-01
0.0000000e+00
0.0000000e+00
1.5338697e-01
-4.9267244e-01
0.0000000e+00
0.0000000e+00
-3.9885744e-01
3.9885753e-01
-4.4388863e-01
3.4323272e-01
-4.8472214e-01
1.9063479e-01
4.1452429e-01
-2.6900080e-01
4.2623034e-01
-3.2702732e-01
0.0000000e+00
0.0000000e+00
0.0000000e+00
0.0000000e+00
2.2714655e-01
-4.7449487e-01
4.2105591e-01
-4.2258006e-01
-3.7086296e-01
3.7216264e-01
0.0000000e+00
-4.6212271e-01
2.6277548e-01
0.0000000e+00
0.0000000e+00
0.0000000e+00
0.0000000e+00
0.0000000e+00
0.0000000e+00
2.9737535e-01
4.4100267e-01
-2.9329184e-01
-4.4772956e-01
4.2480585e-01
0.0000000e+00
0.0000000e+00
-2.3215625e-01
-3.9954370e-01
3.9954379e-01
-3.4137726e-01
4.4133547e-01
0.0000000e+00
0.0000000e+00
0.0000000e+00
-4.5872548e-01
0.0000000e+00
0.0000000e+00
-4.6251288e-01
4.0646780e-02
-4.3143103e-01
3.3080035e-01
8.1145726e-02
-4.6211869e-01
-4.5936725e-01
1.2133842e-01
-3.7488946e-01
4.2523655e-01
1.6106805e-01
-4.5424670e-01
0.0000000e+00
0.0000000e+00
4.5153776e-01
-2.5743115e-01
3.6290523e-01
-4.1333541e-01
0.0000000e+00
0.0000000e+00
-3.1060460e-01
0.0000000e+00
0.0000000e+00
-4.4690594e-01
2.0017931e-01
4.5964164e-01
0.0000000e+00
0.0000000e+00
-4.3746960e-01
2.3851827e-01
0.0000000e+00
0.0000000e+00
-3.4873134e-01
4.4910431e-01
0.0000000e+00
0.0000000e+00
-3.9354566e-01
3.9354584e-01
-4.2606077e-01
2.7593234e-01
0.0000000e+00
0.0000000e+00
-2.2201769e-01
4.6270177e-01
-2.7858397e-01
4.7569346e-01
3.1227016e-01
-4.1279513e-01
4.2258000e-01
-3.7216240e-01
0.0000000e+00
0.0000000e+00
0.0000000e+00
0.0000000e+00
4.7102597e-01
-3.2119772e-01
3.4738180e-01
0.0000000e+00
-4.1817552e-01
-3.9778072e-01
0.0000000e+00
4.2424500e-02
-4.2161366e-01
0.0000000e+00
0.0000000e+00
-4.2124018e-01
8.4693260e-02
0.0000000e+00
0.0000000e+00
0.0000000e+00
1.2664108e-01
4.4986895e-01