# vtk DataFile Version 4.0
vtk output
ASCII
DATASET UNSTRUCTURED_GRID
POINTS 2601 float
0.0000000e+00 0.0000000e+00 0.0000000e+00 
0.0000000e+00 2.0000000e-02 0.0000000e+00 
2.0000000e-02 0.0000000e+00 0.0000000e+00 
2.0000000e-02 2.0000000e-02 0.0000000e+00 
3.9999999e-02 0.0000000e+00 0.0000000e+00 
0.0000000e+00 3.9999999e-02 0.0000000e+00 
3.9999999e-02 2.0000000e-02 0.0000000e+00 
2.0000000e-02 3.9999999e-02 0.0000000e+00 
3.9999999e-02 3.9999999e-02 0.0000000e+00 
5.9999999e-02 0.0000000e+00 0.0000000e+00 
0.0000000e+00 5.9999999e-02 0.0000000e+00 
5.9999999e-02 2.0000000e-02 0.0000000e+00 
2.0000000e-02 5.9999999e-02 0.0000000e+00 
3.9999999e-02 5.9999999e-02 0.0000000e+00 
5.9999999e-02 3.9999999e-02 0.0000000e+00 
7.9999998e-02 0.0000000e+00 0.0000000e+00 
0.0000000e+00 7.9999998e-02 0.0000000e+00 
7.9999998e-02 2.0000000e-02 0.0000000e+00 
2.0000000e-02 7.9999998e-02 0.0000000e+00 
5.9999999e-02 5.9999999e-02 0.0000000e+00 
7.9999998e-02 3.9999999e-02 0.0000000e+00 
3.9999999e-02 7.9999998e-02 0.0000000e+00 
5.9999999e-02 7.9999998e-02 0.0000000e+00 
7.9999998e-02 5.9999999e-02 0.0000000e+00 
1.0000000e-01 0.0000000e+00 0.0000000e+00 
0.0000000e+00 1.0000000e-01 0.0000000e+00 
1.0000000e-01 2.0000000e-02 0.0000000e+00 
2.0000000e-02 1.0000000e-01 0.0000000e+00 
3.9999999e-02 1.0000000e-01 0.0000000e+00 
1.0000000e-01 3.9999999e-02 0.0000000e+00 
7.9999998e-02 7.9999998e-02 0.0000000e+00 
1.0000000e-01 5.9999999e-02 0.0000000e+00 
5.9999999e-02 1.0000000e-01 0.0000000e+00 
1.2000000e-01 0.0000000e+00 0.0000000e+00 
0.0000000e+00 1.2000000e-01 0.0000000e+00 
1.2000000e-01 2.0000000e-02 0.0000000e+00 
2.0000000e-02 1.2000000e-01 0.0000000e+00 
1.2000000e-01 3.9999999e-02 0.0000000e+00 
3.9999999e-02 1.2000000e-01 0.0000000e+00 
1.0000000e-01 7.9999998e-02 0.0000000e+00 
7.9999998e-02 1.0000000e-01 0.0000000e+00 
1.2000000e-01 5.9999999e-02 0.0000000e+00 
5.9999999e-02 1.2000000e-01 0.0000000e+00 
0.0000000e+00 1.4000000e-01 0.0000000e+00 
1.4000000e-01 0.0000000e+00 0.0000000e+00 
1.0000000e-01 1.0000000e-01 0.0000000e+00 
2.0000000e-02 1.4000000e-01 0.0000000e+00 
1.4000000e-01 2.0000000e-02 0.0000000e+00 
1.2000000e-01 7.9999998e-02 0.0000000e+00 
7.9999998e-02 1.2000000e-01 0.0000000e+00 
3.9999999e-02 1.4000000e-01 0.0000000e+00 
1.4000000e-01 3.9999999e-02 0.0000000e+00 
1.4000000e-01 5.9999999e-02 0.0000000e+00 
5.9999999e-02 1.4000000e-01 0.0000000e+00 
1.2000000e-01 1.0000000e-01 0.0000000e+00 
1.0000000e-01 1.2000000e-01 0.0000000e+00 
1.6000000e-01 0.0000000e+00 0.0000000e+00 
0.0000000e+00 1.6000000e-01 0.0000000e+00 
1.6000000e-01 2.0000000e-02 0.0000000e+00 
7.9999998e-02 1.4000000e-01 0.0000000e+00 
2.0000000e-02 1.6000000e-01 0.0000000e+00 
1.4000000e-01 7.9999998e-02 0.0000000e+00 
1.6000000e-01 3.9999999e-02 0.0000000e+00 
3.9999999e-02 1.6000000e-01 0.0000000e+00 
1.2000000e-01 1.2000000e-01 0.0000000e+00 
1.6000000e-01 5.9999999e-02 0.0000000e+00 
5.9999999e-02 1.6000000e-01 0.0000000e+00 
1.0000000e-01 1.4000000e-01 0.0000000e+00 
1.4000000e-01 1.0000000e-01 0.0000000e+00 
1.6000000e-01 7.9999998e-02 0.0000000e+00 
7.9999998e-02 1.6000000e-01 0.0000000e+00 
0.0000000e+00 1.8000001e-01 0.0000000e+00 
1.8000001e-01 0.0000000e+00 0.0000000e+00 
1.8000001e-01 2.0000000e-02 0.0000000e+00 
2.0000000e-02 1.8000001e-01 0.0000000e+00 
3.9999999e-02 1.8000001e-01 0.0000000e+00 
1.8000001e-01 3.9999999e-02 0.0000000e+00 
1.2000000e-01 1.4000000e-01 0.0000000e+00 
1.4000000e-01 1.2000000e-01 0.0000000e+00 
1.0000000e-01 1.6000000e-01 0.0000000e+00 
1.6000000e-01 1.0000000e-01 0.0000000e+00 
1.8000001e-01 5.9999999e-02 0.0000000e+00 
5.9999999e-02 1.8000001e-01 0.0000000e+00 
7.9999998e-02 1.8000001e-01 0.0000000e+00 
1.8000001e-01 7.9999998e-02 0.0000000e+00 
1.4000000e-01 1.4000000e-01 0.0000000e+00 
1.2000000e-01 1.6000000e-01 0.0000000e+00 
1.6000000e-01 1.2000000e-01 0.0000000e+00 
0.0000000e+00 2.0000000e-01 0.0000000e+00 
2.0000000e-01 0.0000000e+00 0.0000000e+00 
2.0000000e-01 2.0000000e-02 0.0000000e+00 
2.0000000e-02 2.0000000e-01 0.0000000e+00 
2.0000000e-01 3.9999999e-02 0.0000000e+00 
3.9999999e-02 2.0000000e-01 0.0000000e+00 
1.0000000e-01 1.8000001e-01 0.0000000e+00 
1.8000001e-01 1.0000000e-01 0.0000000e+00 
2.0000000e-01 5.9999999e-02 0.0000000e+00 
5.9999999e-02 2.0000000e-01 0.0000000e+00 
1.4000000e-01 1.6000000e-01 0.0000000e+00 
1.6000000e-01 1.4000000e-01 0.0000000e+00 
2.0000000e-01 7.9999998e-02 0.0000000e+00 
7.9999998e-02 2.0000000e-01 0.0000000e+00 
1.8000001e-01 1.2000000e-01 0.0000000e+00 
1.2000000e-01 1.8000001e-01 0.0000000e+00 
2.2000000e-01 0.0000000e+00 0.0000000e+00 
0.0000000e+00 2.2000000e-01 0.0000000e+00 
2.2000000e-01 2.0000000e-02 0.0000000e+00 
2.0000000e-02 2.2000000e-01 0.0000000e+00 
2.2000000e-01 3.9999999e-02 0.0000000e+00 
3.9999999e-02 2.2000000e-01 0.0000000e+00 
1.0000000e-01 2.0000000e-01 0.0000000e+00 
2.0000000e-01 1.0000000e-01 0.0000000e+00 
1.6000000e-01 1.6000000e-01 0.0000000e+00 
2.2000000e-01 5.9999999e-02 0.0000000e+00 
5.9999999e-02 2.2000000e-01 0.0000000e+00 
1.8000001e-01 1.4000000e-01 0.0000000e+00 
1.4000000e-01 1.8000001e-01 0.0000000e+00 
2.0000000e-01 1.2000000e-01 0.0000000e+00 
1.2000000e-01 2.0000000e-01 0.0000000e+00 
7.9999998e-02 2.2000000e-01 0.0000000e+00 
2.2000000e-01 7.9999998e-02 0.0000000e+00 
2.3999999e-01 0.0000000e+00 0.0000000e+00 
0.0000000e+00 2.3999999e-01 0.0000000e+00 
2.3999999e-01 2.0000000e-02 0.0000000e+00 
1.8000001e-01 1.6000000e-01 0.0000000e+00 
1.6000000e-01 1.8000001e-01 0.0000000e+00 
2.0000000e-02 2.3999999e-01 0.0000000e+00 
2.2000000e-01 1.0000000e-01 0.0000000e+00 
1.0000000e-01 2.2000000e-01 0.0000000e+00 
3.9999999e-02 2.3999999e-01 0.0000000e+00 
2.3999999e-01 3.9999999e-02 0.0000000e+00 
1.4000000e-01 2.0000000e-01 0.0000000e+00 
2.0000000e-01 1.4000000e-01 0.0000000e+00 
2.3999999e-01 5.9999999e-02 0.0000000e+00 
5.9999999e-02 2.3999999e-01 0.0000000e+00 
2.2000000e-01 1.2000000e-01 0.0000000e+00 
1.2000000e-01 2.2000000e-01 0.0000000e+00 
7.9999998e-02 2.3999999e-01 0.0000000e+00 
2.3999999e-01 7.9999998e-02 0.0000000e+00 
1.8000001e-01 1.8000001e-01 0.0000000e+00 
2.0000000e-01 1.6000000e-01 0.0000000e+00 
1.6000000e-01 2.0000000e-01 0.0000000e+00 
1.0000000e-01 2.3999999e-01 0.0000000e+00 
2.3999999e-01 1.0000000e-01 0.0000000e+00 
0.0000000e+00 2.5999999e-01 0.0000000e+00 
2.5999999e-01 0.0000000e+00 0.0000000e+00 
1.4000000e-01 2.2000000e-01 0.0000000e+00 
2.2000000e-01 1.4000000e-01 0.0000000e+00 
2.0000000e-02 2.5999999e-01 0.0000000e+00 
2.5999999e-01 2.0000000e-02 0.0000000e+00 
3.9999999e-02 2.5999999e-01 0.0000000e+00 
2.5999999e-01 3.9999999e-02 0.0000000e+00 
5.9999999e-02 2.5999999e-01 0.0000000e+00 
2.5999999e-01 5.9999999e-02 0.0000000e+00 
2.3999999e-01 1.2000000e-01 0.0000000e+00 
1.2000000e-01 2.3999999e-01 0.0000000e+00 
1.8000001e-01 2.0000000e-01 0.0000000e+00 
2.0000000e-01 1.8000001e-01 0.0000000e+00 
2.2000000e-01 1.6000000e-01 0.0000000e+00 
7.9999998e-02 2.5999999e-01 0.0000000e+00 
2.5999999e-01 7.9999998e-02 0.0000000e+00 
1.6000000e-01 2.2000000e-01 0.0000000e+00 
2.3999999e-01 1.4000000e-01 0.0000000e+00 
1.4000000e-01 2.3999999e-01 0.0000000e+00 
1.0000000e-01 2.5999999e-01 0.0000000e+00 
2.5999999e-01 1.0000000e-01 0.0000000e+00 
2.8000000e-01 0.0000000e+00 0.0000000e+00 
0.0000000e+00 2.8000000e-01 0.0000000e+00 
2.0000000e-02 2.8000000e-01 0.0000000e+00 
2.8000000e-01 2.0000000e-02 0.0000000e+00 
2.8000000e-01 3.9999999e-02 0.0000000e+00 
3.9999999e-02 2.8000000e-01 0.0000000e+00 
2.0000000e-01 2.0000000e-01 0.0000000e+00 
1.8000001e-01 2.2000000e-01 0.0000000e+00 
2.2000000e-01 1.8000001e-01 0.0000000e+00 
2.8000000e-01 5.9999999e-02 0.0000000e+00 
2.5999999e-01 1.2000000e-01 0.0000000e+00 
1.2000000e-01 2.5999999e-01 0.0000000e+00 
5.9999999e-02 2.8000000e-01 0.0000000e+00 
2.3999999e-01 1.6000000e-01 0.0000000e+00 
1.6000000e-01 2.3999999e-01 0.0000000e+00 
7.9999998e-02 2.8000000e-01 0.0000000e+00 
2.8000000e-01 7.9999998e-02 0.0000000e+00 
1.4000000e-01 2.5999999e-01 0.0000000e+00 
2.5999999e-01 1.4000000e-01 0.0000000e+00 
2.2000000e-01 2.0000000e-01 0.0000000e+00 
1.0000000e-01 2.8000000e-01 0.0000000e+00 
2.0000000e-01 2.2000000e-01 0.0000000e+00 
2.8000000e-01 1.0000000e-01 0.0000000e+00 
1.8000001e-01 2.3999999e-01 0.0000000e+00 
3.0000001e-01 0.0000000e+00 0.0000000e+00 
2.3999999e-01 1.8000001e-01 0.0000000e+00 
0.0000000e+00 3.0000001e-01 0.0000000e+00 
3.0000001e-01 2.0000000e-02 0.0000000e+00 
2.0000000e-02 3.0000001e-01 0.0000000e+00 
3.9999999e-02 3.0000001e-01 0.0000000e+00 
3.0000001e-01 3.9999999e-02 0.0000000e+00 
1.2000000e-01 2.8000000e-01 0.0000000e+00 
2.8000000e-01 1.2000000e-01 0.0000000e+00 
1.6000000e-01 2.5999999e-01 0.0000000e+00 
2.5999999e-01 1.6000000e-01 0.0000000e+00 
5.9999999e-02 3.0000001e-01 0.0000000e+00 
3.0000001e-01 5.9999999e-02 0.0000000e+00 
7.9999998e-02 3.0000001e-01 0.0000000e+00 
3.0000001e-01 7.9999998e-02 0.0000000e+00 
2.2000000e-01 2.2000000e-01 0.0000000e+00 
2.3999999e-01 2.0000000e-01 0.0000000e+00 
2.0000000e-01 2.3999999e-01 0.0000000e+00 
1.4000000e-01 2.8000000e-01 0.0000000e+00 
2.8000000e-01 1.4000000e-01 0.0000000e+00 
1.0000000e-01 3.0000001e-01 0.0000000e+00 
2.5999999e-01 1.8000001e-01 0.0000000e+00 
1.8000001e-01 2.5999999e-01 0.0000000e+00 
3.0000001e-01 1.0000000e-01 0.0000000e+00 
0.0000000e+00 3.1999999e-01 0.0000000e+00 
3.1999999e-01 0.0000000e+00 0.0000000e+00 
2.0000000e-02 3.1999999e-01 0.0000000e+00 
3.1999999e-01 2.0000000e-02 0.0000000e+00 
3.9999999e-02 3.1999999e-01 0.0000000e+00 
1.6000000e-01 2.8000000e-01 0.0000000e+00 
3.1999999e-01 3.9999999e-02 0.0000000e+00 
2.8000000e-01 1.6000000e-01 0.0000000e+00 
1.2000000e-01 3.0000001e-01 0.0000000e+00 
3.0000001e-01 1.2000000e-01 0.0000000e+00 
2.2000000e-01 2.3999999e-01 0.0000000e+00 
5.9999999e-02 3.1999999e-01 0.0000000e+00 
2.3999999e-01 2.2000000e-01 0.0000000e+00 
3.1999999e-01 5.9999999e-02 0.0000000e+00 
2.0000000e-01 2.5999999e-01 0.0000000e+00 
2.5999999e-01 2.0000000e-01 0.0000000e+00 
[...]
POINT_DATA 2601
FIELD FieldData 1
TEMPERATURE 1 2601  float
0.0000000e+00
0.0000000e+00
5.0212614e-02
5.0709948e-02
1.0022707e-01
0.0000000e+00
1.0121915e-01
5.0758906e-02
1.0131605e-01
1.4984596e-01
0.0000000e+00
1.5132841e-01
5.0544463e-02
1.0088716e-01
1.5147232e-01
1.9887349e-01
0.0000000e+00
2.0084004e-01
5.0063856e-02
1.5083003e-01
2.0102985e-01
9.9926956e-02
1.4939325e-01
2.0017610e-01
2.4711615e-01
0.0000000e+00
2.4955854e-01
4.9331114e-02
9.8463394e-02
2.4979298e-01
1.9826765e-01
2.4873039e-01
1.4720376e-01
2.9438356e-01
0.0000000e+00
2.9729149e-01
4.8358206e-02
2.9756886e-01
9.6520394e-02
2.4635684e-01
1.9535990e-01
2.9630068e-01
1.4429730e-01
0.0000000e+00
3.4048918e-01
2.4274105e-01
4.7157474e-02
3.4385026e-01
2.9347014e-01
1.9150022e-01
9.4122566e-02
3.4416842e-01
3.4269834e-01
1.4071062e-01
2.8915891e-01
2.3794176e-01
3.8525102e-01
0.0000000e+00
3.8905078e-01
1.8673733e-01
4.5741025e-02
3.3942029e-01
3.8940710e-01
9.1294087e-02
2.8343675e-01
3.8773921e-01
1.3647988e-01
2.3201941e-01
3.3442840e-01
3.8402432e-01
1.8111916e-01
0.0000000e+00
4.2849246e-01
4.3271434e-01
4.4120725e-02
8.8058636e-02
4.3310559e-01
2.7637553e-01
3.2780305e-01
2.2503348e-01
3.7836853e-01
4.3124428e-01
1.3164046e-01
1.7469271e-01
4.2710438e-01
3.1962705e-01
2.6804593e-01
3.7086231e-01
0.0000000e+00
4.7004285e-01
4.7466820e-01
4.2308189e-02
4.7509065e-01
8.4439404e-02
2.1704230e-01
4.2080328e-01
4.7304055e-01
1.2622705e-01
3.0998194e-01
3.6159885e-01
4.6848851e-01
1.6750400e-01
4.1244087e-01
2.5851735e-01
5.0973821e-01
0.0000000e+00
5.1474643e-01
4.0314857e-02
5.1519585e-01
8.0459252e-02
2.0810315e-01
4.6156234e-01
3.5067004e-01
5.1296180e-01
1.2027389e-01
4.0212020e-01
2.9894781e-01
4.5237070e-01
2.4785806e-01
1.5959856e-01
5.0801140e-01
5.4742181e-01
0.0000000e+00
5.5279058e-01
3.8994274e-01
3.3816621e-01
3.8152084e-02
5.0048202e-01
1.9827266e-01
7.6140881e-02
5.5326223e-01
2.8660360e-01
4.4102561e-01
5.5084944e-01
1.1381496e-01
4.9049017e-01
2.3613569e-01
1.5102164e-01
5.4551542e-01
3.7600848e-01
4.2763743e-01
3.2417652e-01
1.8760732e-01
5.3740621e-01
0.0000000e+00
5.8294505e-01
2.7302775e-01
4.7815588e-01
3.5831235e-02
5.8865029e-01
7.1507007e-02
5.8913898e-01
1.0688435e-01
5.8655298e-01
5.2664512e-01
2.2341786e-01
3.6041635e-01
4.1231495e-01
4.6359742e-01
1.4181867e-01
5.8085120e-01
3.0879000e-01
5.1335913e-01
2.5829893e-01
1.7616391e-01
5.7218713e-01
6.1616760e-01
0.0000000e+00
3.3363745e-02
6.2218392e-01
6.2268442e-01
6.6580512e-02
3.9516613e-01
3.4326547e-01
4.4693136e-01
6.1993116e-01
5.6068981e-01
2.0977280e-01
9.9516414e-02
4.9767309e-01
2.9209632e-01
1.3203551e-01
6.1387855e-01
2.4249694e-01
5.4649180e-01
4.2827374e-01
1.6399992e-01
3.7629968e-01
6.0468626e-01
3.2465637e-01
6.4695847e-01
4.7971025e-01
0.0000000e+00
6.5325910e-01
3.0761199e-02
6.1384577e-02
6.5376616e-01
1.9526975e-01
5.9248787e-01
2.7418688e-01
5.2972335e-01
9.1745950e-02
6.5085232e-01
1.2171869e-01
6.4446718e-01
4.0774202e-01
4.5959336e-01
3.5582674e-01
2.2570302e-01
5.7742018e-01
1.5117370e-01
5.1051259e-01
3.0469239e-01
6.3477540e-01
0.0000000e+00
6.7519611e-01
2.8035333e-02
6.8175358e-01
5.5942707e-02
2.5515547e-01
6.8226206e-01
5.5961692e-01
1.7997916e-01
6.2191355e-01
3.8545719e-01
8.3608270e-02
4.3744716e-01
6.7919528e-01
3.3386248e-01
4.8898721e-01
1.1091542e-01
6.7249757e-01
2.0800020e-01
6.0602111e-01
5.3920937e-01
2.8348026e-01
1.3774456e-01
6.6233712e-01
4.1340214e-01
2.3509832e-01
5.8723372e-01
0.0000000e+00
7.0076901e-01
2.5198070e-02
4.6527806e-01
3.6154693e-01
7.0755523e-01
1.6397274e-01
6.4885235e-01
5.0278753e-02
7.0806068e-01
5.1632845e-01
3.1052801e-01
7.5139217e-02
7.0484972e-01
9.9673599e-02
6.9786125e-01
6.3218367e-01
1.8947305e-01
2.6113078e-01
5.6568378e-01
4.3952113e-01
3.8759589e-01
1.2377263e-01
6.8726587e-01
3.3614591e-01
4.9110702e-01
2.1411382e-01
6.1246663e-01
7.2357631e-01
0.0000000e+00
7.3056298e-01
2.2261487e-02
2.8594935e-01
1.4732312e-01
5.4150224e-01
6.7320210e-01
7.3106158e-01
4.4416882e-02
7.2771674e-01
6.6375077e-02
2.3775738e-01
5.8983248e-01
1.7020725e-01
4.1187018e-01
6.5580976e-01
8.8041693e-02
7.2046179e-01
3.6018372e-01
4.6369037e-01
3.0940169e-01
5.1482487e-01
7.0946825e-01
1.0931866e-01
6.3522232e-01
1.9230145e-01
5.6441104e-01
2.6025906e-01
6.9487369e-01
1.3010359e-01
7.4352801e-01
0.0000000e+00
7.5068694e-01
1.9237798e-02
3.8381521e-02
7.5117594e-01
4.3422040e-01
3.8247627e-01
4.8578453e-01
3.3131981e-01
7.4770927e-01
2.1347509e-01
5.7352472e-02
6.1156762e-01
6.7681539e-01
1.5028891e-01
2.8146175e-01
7.4021465e-01
5.3633100e-01
7.6068558e-02
9.4443813e-02
7.2886360e-01
6.5542251e-01
1.6976069e-01
2.3358864e-01
5.8497155e-01
4.0293542e-01
4.5458636e-01
3.5157797e-01
1.1238771e-01
7.1379137e-01
3.0121440e-01
7.6054531e-01
0.0000000e+00
5.0574988e-01
7.6784867e-01
1.6139321e-02
7.6832652e-01
3.2197278e-02
6.3081735e-01
1.8839754e-01
7.6475215e-01
4.8108272e-02
1.2980419e-01
6.9513124e-01
5.5556166e-01
2.5249213e-01
6.3803270e-02
7.5704771e-01
3.6985084e-01
4.2122835e-01
2.0606761e-01
6.0311741e-01
6.7300552e-01
1.4659040e-01
4.7270292e-01
3.1924385e-01
7.9209358e-02
7.4538398e-01
2.7000400e-01
5.2346182e-01
7.2989315e-01
9.4249010e-02
7.7456111e-01
0.0000000e+00
7.8198165e-01
1.2978429e-02
1.6263552e-01
6.4752811e-01
7.8244811e-01
2.5888853e-02
2.2263913e-01
5.7246512e-01
1.0883894e-01
7.1070302e-01
7.7878213e-01
3.8653520e-01
3.8679391e-02
3.3571810e-01
4.3784535e-01
7.7090079e-01
5.1294848e-02
4.8889306e-01
2.8601077e-01
6.1880440e-01
1.7782040e-01
1.2288900e-01
6.8792868e-01
6.3676313e-02
7.5897372e-01
5.3889519e-01
2.3790765e-01
7.4312967e-01
7.5760446e-02
1.3629903e-01
3.4879401e-01
3.9949322e-01
6.6166532e-01
1.9200654e-01
5.8694065e-01
0.0000000e+00
7.8552002e-01
9.7675351e-03
7.9303104e-01
4.5033774e-01
2.9914510e-01
7.9348731e-01
1.9480975e-02
7.2349125e-01
8.7478414e-02
7.8974783e-01
2.9102713e-02
2.5194064e-01
5.0308025e-01
3.8592055e-02
7.8172559e-01
1.4896791e-01
6.3203096e-01
9.8753668e-02
7.0016283e-01
2.0511842e-01
5.5216348e-01
7.6958871e-01
4.7905017e-02
3.6187565e-01
3.1234974e-01
4.1284850e-01
7.5346309e-01
4.6326908e-01
2.6347360e-01
5.6993797e-02
5.9897822e-01
1.6074394e-01
6.7323619e-01
1.0950179e-01
7.9337889e-01
0.0000000e+00
6.5190662e-03
2.1620531e-01
5.1278967e-01
8.0095440e-01
7.3346668e-01
6.5805785e-02
1.2998373e-02
8.0140281e-01
1.9414989e-02
7.9760975e-01
1.1961200e-01
6.4272636e-01
5.6324083e-01
1.7166975e-01
7.8948498e-01
3.2419401e-01
2.5743252e-02
3.7429446e-01
7.0969868e-01
7.4281618e-02
4.2466396e-01
2.7522692e-01
7.7719545e-01
3.1954832e-02
2.2738548e-01
4.7453040e-01
1.2902997e-01
6.0887820e-01
3.8018648e-02
8.2351342e-02
6.8223804e-01
7.6086456e-01
5.2287668e-01
1.8089072e-01
0.0000000e+00
7.9810667e-01
8.0572122e-01
3.2454787e-03
4.3900520e-02
7.4060738e-01
3.3448517e-01
8.0616510e-01
6.4658038e-03
2.8566465e-01
3.8490030e-01
8.9922935e-02
6.5111607e-01
8.0233973e-01
5.6946272e-01
1.3712047e-01
9.6529340e-03
2.3750493e-01
4.3492022e-01
1.2796500e-02
7.9415286e-01
7.1651906e-01
4.9562000e-02
4.8397550e-01
1.9061355e-01
7.8177047e-01
1.5884187e-02
6.1648953e-01
9.6896410e-02
5.3131586e-01
1.4553028e-01
5.4957949e-02
6.8867868e-01
7.6531416e-01
1.8902209e-02
0.0000000e+00
0.0000000e+00
0.0000000e+00
0.0000000e+00
2.1835973e-02
0.0000000e+00
7.9968464e-01
7.4489665e-01
4.4375566e-01
1.9958062e-01
-4.0715709e-05
8.0731332e-01
5.7634276e-01
1.0273763e-01
8.0775660e-01
-9.1874492e-05
6.0023028e-02
6.5711749e-01
-1.4660326e-04
8.0392122e-01
4.9168628e-01
1.5346107e-01
7.2061026e-01
2.4671286e-02
-2.0000100e-04
7.9571408e-01
0.0000000e+00
0.0000000e+00
6.4672612e-02
7.8330058e-01
-2.4850640e-04
0.0000000e+00
6.2204200e-01
1.0975631e-01
5.3799027e-01
0.0000000e+00
0.0000000e+00
6.9253182e-01
2.7396424e-02
7.6680124e-01
-2.8905857e-04
0.0000000e+00
0.0000000e+00
6.8465613e-02
5.8146054e-01
-3.1769680e-04
7.4632668e-01
6.6069829e-01
3.0001214e-02
7.9810667e-01
0.0000000e+00
8.0572462e-01
-3.3269317e-03
-6.6496269e-03
4.9810362e-01
1.1649853e-01
8.0617160e-01
0.0000000e+00
-9.9464292e-03
8.0234903e-01
0.0000000e+00
0.0000000e+00
-3.2651352e-04
7.2196603e-01
0.0000000e+00
7.9416424e-01
-1.3197385e-02
3.2468501e-02
6.2535024e-01
0.0000000e+00
0.0000000e+00
5.4269212e-01
7.3602058e-02
-1.6383503e-02
7.8178257e-01
6.9378793e-01
-2.9482256e-04
0.0000000e+00
0.0000000e+00
7.6532441e-01
-1.9485923e-02
5.8467519e-01
3.4463026e-02
0.0000000e+00
0.0000000e+00
0.0000000e+00
0.0000000e+00
-2.2485029e-02
7.4490005e-01
-1.5981443e-04
6.6180754e-01
0.0000000e+00
0.0000000e+00
7.9337889e-01
0.0000000e+00
-6.6005173e-03
8.0096132e-01
0.0000000e+00
8.0141628e-01
-1.3182251e-02
7.9762912e-01
-1.9708985e-02
0.0000000e+00
0.0000000e+00
7.2059673e-01
-2.5359584e-02
7.8950918e-01
3.7662182e-02
5.4565978e-01
-2.6145978e-02
6.2618321e-01
3.0218391e-04
7.7722234e-01
-3.2459147e-02
0.0000000e+00
0.0000000e+00
6.9248044e-01
-2.8087694e-02
0.0000000e+00
0.0000000e+00
7.6089036e-01
0.0000000e+00
0.0000000e+00
-3.8614273e-02
1.9636643e-03
5.8473933e-01
0.0000000e+00
0.0000000e+00
0.0000000e+00
0.0000000e+00
6.6056186e-01
-3.0652868e-02
7.4062496e-01
-4.4576399e-02
0.0000000e+00
7.8552002e-01
7.9304171e-01
-9.8487977e-03
0.0000000e+00
0.0000000e+00
-1.9664483e-02
7.9350829e-01
7.8977847e-01
7.1651506e-01
-2.9396571e-02
-5.0310161e-02
5.4553008e-01
3.2652253e-03
-3.3111282e-02
6.2502491e-01
-3.8995825e-02
0.0000000e+00
7.8176481e-01
0.0000000e+00
0.0000000e+00
0.0000000e+00
0.0000000e+00
0.0000000e+00
0.0000000e+00
-4.8413299e-02
7.6963460e-01
6.8862426e-01
-5.5782810e-02
0.0000000e+00
0.0000000e+00
-3.5724316e-02
5.8390421e-01
7.5351226e-01
-5.7599377e-02
0.0000000e+00
0.0000000e+00
6.5696102e-01
-6.0972992e-02
0.0000000e+00
0.0000000e+00
-6.6502899e-02
7.3351383e-01
0.0000000e+00
7.7456111e-01
0.0000000e+00
0.0000000e+00
7.8199631e-01
-1.3059134e-02
-2.6071129e-02
0.0000000e+00
0.0000000e+00
-3.6584329e-02
5.4460031e-01
7.8247720e-01
7.0973319e-01
-7.5070255e-02
6.2165362e-01
0.0000000e+00
0.0000000e+00
7.7882516e-01
-3.8971622e-02
-6.5921277e-02
0.0000000e+00
0.0000000e+00
-5.1697254e-02
7.7095717e-01
-8.3247222e-02
0.0000000e+00
6.8224686e-01
0.0000000e+00
-6.4184576e-02
7.5904226e-01
0.0000000e+00
0.0000000e+00
5.8063835e-01
-7.0517555e-02
-7.6368824e-02
7.4320894e-01
0.0000000e+00
0.0000000e+00
0.0000000e+00
6.5104562e-01
0.0000000e+00
-9.0967178e-02
0.0000000e+00
-8.8182375e-02
7.2357905e-01
0.0000000e+00
0.0000000e+00
5.4137081e-01
-7.3520645e-02
0.0000000e+00
7.6054531e-01
0.0000000e+00
0.0000000e+00
-1.6218957e-02
7.6786762e-01
0.0000000e+00
0.0000000e+00
7.6836413e-01
-3.2377154e-02
-9.9553175e-02
-9.8211646e-02
6.1633652e-01
7.0025909e-01
7.6480842e-01
-4.8396837e-02
0.0000000e+00
0.0000000e+00
-6.4201064e-02
7.5712252e-01
6.7333233e-01
-1.1040054e-01
0.0000000e+00
0.0000000e+00
0.0000000e+00
-7.9712503e-02
0.0000000e+00
7.4547738e-01
-1.0447680e-01
5.7576895e-01
0.0000000e+00
0.0000000e+00
0.0000000e+00
0.0000000e+00
7.3000550e-01
-9.4851956e-02
0.0000000e+00
0.0000000e+00
6.4290273e-01
-1.2063682e-01
-1.0953660e-01
0.0000000e+00
0.0000000e+00
7.1083581e-01
-1.0963413e-01
5.3676426e-01
0.0000000e+00
0.0000000e+00
7.4352801e-01
0.0000000e+00
-1.9315798e-02
6.0890710e-01
-1.3011192e-01
7.5071019e-01
6.8808454e-01
-1.2367740e-01
0.0000000e+00
0.0000000e+00
-3.8557708e-02
7.5122225e-01
0.0000000e+00
0.0000000e+00
0.0000000e+00
7.4777895e-01
-5.7635177e-02
0.0000000e+00
0.0000000e+00
7.4030823e-01
-7.6458372e-02
0.0000000e+00
0.0000000e+00
6.6185743e-01
-1.3717571e-01
0.0000000e+00
0.0000000e+00
5.7210302e-01
-1.3875461e-01
0.0000000e+00
0.0000000e+00
-9.4936907e-02
7.2898209e-01
-1.1297834e-01
7.1393687e-01
0.0000000e+00
6.3225085e-01
0.0000000e+00
-1.4991803e-01
0.0000000e+00
0.0000000e+00
-1.4558598e-01
5.3067011e-01
6.9530731e-01
-1.3048628e-01
0.0000000e+00
0.0000000e+00
0.0000000e+00
0.0000000e+00
0.0000000e+00
0.0000000e+00
5.9936231e-01
-1.6175640e-01
0.0000000e+00
7.2357631e-01
-2.2337284e-02
0.0000000e+00
0.0000000e+00
6.7321897e-01
-1.4735793e-01
7.3059040e-01
-4.4588115e-02
7.3111635e-01
-6.6649832e-02
7.2779942e-01
0.0000000e+00
0.0000000e+00
4.9052247e-01
-1.5237227e-01
-8.8420466e-02
0.0000000e+00
0.0000000e+00
7.2057343e-01
-1.6348118e-01
6.4778942e-01
5.6341481e-01
-1.7257023e-01
-1.0979754e-01
7.0961070e-01
0.0000000e+00
0.0000000e+00
0.0000000e+00
0.0000000e+00
0.0000000e+00
6.9505012e-01
-1.3067663e-01
-1.7872922e-01
6.1913127e-01
0.0000000e+00
0.0000000e+00
0.0000000e+00
0.0000000e+00
-1.8147461e-01
5.2265197e-01
0.0000000e+00
0.0000000e+00
6.7703086e-01
-1.5094957e-01
0.0000000e+00
0.0000000e+00
-1.9296739e-01
5.8738452e-01
-1.7050238e-01
6.5568501e-01
0.0000000e+00
7.0076901e-01
0.0000000e+00
0.0000000e+00
7.0758653e-01
-2.5271155e-02
-5.0443903e-02
7.0812333e-01
-1.9009450e-01
4.8314801e-01
0.0000000e+00
0.0000000e+00
7.0494449e-01
-7.5404182e-02
-1.8921268e-01
-2.0599228e-01
0.0000000e+00
0.0000000e+00
-1.0003871e-01
6.9798952e-01
5.5258304e-01
6.3113862e-01
0.0000000e+00
0.0000000e+00
0.0000000e+00
0.0000000e+00
-1.2423390e-01
6.8742996e-01
0.0000000e+00
0.0000000e+00
-2.0694703e-01
6.0351580e-01
0.0000000e+00
-1.4787453e-01
6.7340595e-01
0.0000000e+00
0.0000000e+00
0.0000000e+00
-2.1784507e-01
5.1543218e-01
0.0000000e+00
0.0000000e+00
6.5605909e-01
-1.7084226e-01
-2.2356009e-01
0.0000000e+00
0.0000000e+00
5.7294375e-01
0.0000000e+00
6.3552570e-01
-1.9301385e-01
0.0000000e+00
0.0000000e+00
0.0000000e+00
0.0000000e+00
0.0000000e+00
6.7519611e-01
-2.2747175e-01
-2.8105266e-02
4.7422040e-01
6.8178838e-01
-5.6100804e-02
0.0000000e+00
0.0000000e+00
6.8233180e-01
-8.3861880e-02
0.0000000e+00
0.0000000e+00
6.7930079e-01
-2.3887974e-01
5.3954816e-01
0.0000000e+00
0.0000000e+00
6.1193740e-01
-2.1425916e-01
-1.1126470e-01
6.7264038e-01
-1.3818546e-01
6.6251993e-01
0.0000000e+00
0.0000000e+00
-2.3719512e-01
4.3435845e-01
-2.3443966e-01
0.0000000e+00
0.0000000e+00
5.8542448e-01
6.4907920e-01
-1.6449922e-01
-2.5281408e-01
5.0356066e-01
0.0000000e+00
0.0000000e+00
0.0000000e+00
0.0000000e+00
-1.9007875e-01
0.0000000e+00
0.0000000e+00
6.3246053e-01
5.5611676e-01
-2.5340354e-01
0.0000000e+00
0.0000000e+00
0.0000000e+00
0.0000000e+00
-2.1479310e-01
-2.6420617e-01
4.6341193e-01
6.1280215e-01
0.0000000e+00
0.0000000e+00
0.0000000e+00
6.4695847e-01
0.0000000e+00
0.0000000e+00
-3.0827625e-02
6.5329701e-01
-6.1534826e-02
6.5384203e-01
-2.7100378e-01
5.2417499e-01
-9.1986917e-02
6.5096700e-01
-2.3850620e-01
5.9023869e-01
6.4462227e-01
0.0000000e+00
0.0000000e+00
-1.2205034e-01
4.2449501e-01
-2.7538058e-01
6.3497347e-01
-1.5159191e-01
0.0000000e+00
0.0000000e+00
0.0000000e+00
0.0000000e+00
0.0000000e+00
-2.6107514e-01
5.6490344e-01
-2.8698286e-01
0.0000000e+00
0.0000000e+00
4.8963276e-01
0.0000000e+00
6.2215865e-01
0.0000000e+00
-1.8047790e-01
0.0000000e+00
0.0000000e+00
-2.0857322e-01
6.0631901e-01
-2.8235096e-01
5.3693497e-01
0.0000000e+00
0.0000000e+00
0.0000000e+00
0.0000000e+00
-3.0146745e-01
4.5316395e-01
0.0000000e+00
0.0000000e+00
-2.3574029e-01
5.8759248e-01
6.1616760e-01
0.0000000e+00
6.2222433e-01
-3.3426389e-02
-6.6722281e-02
6.2276524e-01
0.0000000e+00
0.0000000e+00
-3.0216783e-01
5.0646937e-01
0.0000000e+00
0.0000000e+00
-9.9743724e-02
6.2005317e-01
0.0000000e+00
0.0000000e+00
5.6611413e-01
-2.6183814e-01
6.1404330e-01
-1.3234811e-01
0.0000000e+00
0.0000000e+00
0.0000000e+00
0.0000000e+00
-3.1267810e-01
4.1299230e-01
6.0489613e-01
-1.6439357e-01
0.0000000e+00
0.0000000e+00
-2.8672171e-01
5.4201895e-01
0.0000000e+00
0.0000000e+00
4.7371775e-01
-3.2039300e-01
5.9274644e-01
-1.9573843e-01
0.0000000e+00
0.0000000e+00
5.7773268e-01
-2.2624044e-01
3.7428549e-01
-3.2435337e-01
-3.1024051e-01
5.1544386e-01
0.0000000e+00
0.0000000e+00
4.3867499e-01
-3.3670169e-01
0.0000000e+00
0.0000000e+00
0.0000000e+00
5.5999041e-01
0.0000000e+00
0.0000000e+00
-2.5575620e-01
0.0000000e+00
0.0000000e+00
-3.3224306e-01
4.8653921e-01
0.0000000e+00
5.8294505e-01
5.8869267e-01
-3.5889886e-02
0.0000000e+00
0.0000000e+00
5.8922362e-01
-7.1639806e-02
5.3965318e-01
-2.8414065e-01
-1.0709721e-01
5.8668053e-01
0.0000000e+00
0.0000000e+00
-3.5140374e-01
4.0220070e-01
0.0000000e+00
0.0000000e+00
-1.4211109e-01
0.0000000e+00
0.0000000e+00
5.8102292e-01
4.5545155e-01
5.7240510e-01
-1.7653161e-01
-3.5255960e-01
-3.1124657e-01
5.1685405e-01
0.0000000e+00
0.0000000e+00
5.6095713e-01
0.0000000e+00
0.0000000e+00
-2.1020967e-01
0.0000000e+00
0.0000000e+00
-3.6253172e-01
3.6253271e-01
0.0000000e+00
0.0000000e+00
-3.3692509e-01
4.9172935e-01
0.0000000e+00
0.0000000e+00
5.4681301e-01
-2.4299653e-01
-3.7108478e-01
4.2242849e-01
0.0000000e+00
0.0000000e+00
0.0000000e+00
0.0000000e+00
5.3010422e-01
-2.7474350e-01
-3.6102492e-01
4.6442106e-01
0.0000000e+00
5.4742181e-01
-3.8206607e-02
5.5283427e-01
0.0000000e+00
0.0000000e+00
-3.7428766e-01
3.2435372e-01
-7.6264367e-02
5.5334932e-01
5.1096058e-01
-3.8748264e-01
3.8748246e-01
0.0000000e+00
0.0000000e+00
-3.0530167e-01
5.5098045e-01
-1.1401279e-01
0.0000000e+00
5.4569137e-01
-1.5129310e-01
0.0000000e+00
0.0000000e+00
4.3508998e-01
0.0000000e+00
0.0000000e+00
-3.8340098e-01
0.0000000e+00
0.0000000e+00
-3.3452195e-01
5.3762871e-01
-1.8794805e-01
4.8951137e-01
0.0000000e+00
0.0000000e+00
-2.2382170e-01
5.2691674e-01
0.0000000e+00
0.0000000e+00
-4.0220153e-01
3.5140392e-01
0.0000000e+00
0.0000000e+00
0.0000000e+00
4.6588814e-01
-3.6225560e-01
0.0000000e+00
4.0389305e-01
-4.0389284e-01
-2.5875929e-01
5.1368344e-01
0.0000000e+00
4.9805477e-01
0.0000000e+00
-2.9260707e-01
-3.8835570e-01
0.0000000e+00
4.4022852e-01
0.0000000e+00
-4.1299546e-01
3.1267825e-01
0.0000000e+00
0.0000000e+00
0.0000000e+00
0.0000000e+00
-4.2242849e-01
0.0000000e+00
5.0973821e-01
3.7108478e-01
5.1479077e-01
-4.0365156e-02
5.1528406e-01
0.0000000e+00
-3.2521251e-01
0.0000000e+00
-8.0573194e-02
4.8015493e-01
5.1309425e-01
-1.2045629e-01
0.0000000e+00
0.0000000e+00
-1.5984853e-01
5.0818878e-01
0.0000000e+00
0.0000000e+00
4.1267788e-01
-4.1267732e-01
4.6010762e-01
-3.5642436e-01
5.0070554e-01
-1.9858579e-01
-4.2450377e-01
2.7537921e-01
-4.3867564e-01
3.3670160e-01
0.0000000e+00
0.0000000e+00
0.0000000e+00
0.0000000e+00
-2.3650582e-01
4.9076176e-01
-4.3508926e-01
4.3803799e-01
3.8340122e-01
-3.8609362e-01
0.0000000e+00
4.7847828e-01
-2.7344817e-01
0.0000000e+00
0.0000000e+00
0.0000000e+00
0.0000000e+00
0.0000000e+00
0.0000000e+00
-3.0925438e-01
-4.5316640e-01
3.0146712e-01
4.6397409e-01
-4.3437266e-01
0.0000000e+00
0.0000000e+00
2.3719446e-01
4.1407523e-01
-4.1407457e-01
3.5255963e-01
-4.5545071e-01
0.0000000e+00
0.0000000e+00
0.0000000e+00
4.7004285e-01
0.0000000e+00
0.0000000e+00
4.7471237e-01
-4.2354219e-02
4.4736648e-01
-3.4376809e-01
-8.4543645e-02
4.7517851e-01
4.7317216e-01
-1.2639380e-01
3.8835612e-01
-4.4022754e-01
-1.6773216e-01
4.6866429e-01
0.0000000e+00
0.0000000e+00
-4.6341804e-01
2.6420507e-01
-3.7683570e-01
4.2877194e-01
0.0000000e+00
0.0000000e+00
3.2039291e-01
0.0000000e+00
0.0000000e+00
4.6178314e-01
-2.0838837e-01
-4.7371694e-01
0.0000000e+00
0.0000000e+00
4.5263788e-01
-2.4819426e-01
0.0000000e+00
0.0000000e+00
3.6102509e-01
-4.6441969e-01
0.0000000e+00
0.0000000e+00
4.0830773e-01
-4.0830714e-01
4.4134113e-01
-2.8698412e-01
0.0000000e+00
0.0000000e+00
2.2747201e-01
-4.7422922e-01
2.8698263e-01
-4.8963225e-01
-3.2459483e-01
4.2800376e-01
-4.3803707e-01
3.8609406e-01
0.0000000e+00
0.0000000e+00
0.0000000e+00
0.0000000e+00
-4.8653731e-01
3.3224311e-01
-3.6086640e-01
0.0000000e+00
4.2849246e-01
4.1273496e-01
0.0000000e+00
-4.4162463e-02
4.3275759e-01
0.0000000e+00
0.0000000e+00
4.3319145e-01
-8.8153094e-02
0.0000000e+00
0.0000000e+00
0.0000000e+00
-1.3179138e-01
-4.6588677e-01
0.0000000e+00
3.6225590e-01
4.3137270e-01
-5.0356060e-01
2.5281373e-01
-4.8315614e-01
1.9009468e-01
-1.7489889e-01
4.2727551e-01
3.0216777e-01
-5.0646669e-01
0.0000000e+00
0.0000000e+00
-3.9564246e-01
3.9564294e-01
-2.1729951e-01
4.2101756e-01
0.0000000e+00
0.0000000e+00
0.0000000e+00
0.0000000e+00
3.3692527e-01
-4.9172735e-01
-2.5881970e-01
4.1269919e-01
3.7683612e-01
-4.2877120e-01
-5.1543188e-01
2.1784511e-01
-2.9928878e-01
4.0242383e-01
0.0000000e+00
0.0000000e+00
-5.2417117e-01
2.7100366e-01
1.5237185e-01
-4.9053091e-01