# vtk DataFile Version 4.0
vtk output
ASCII
DATASET UNSTRUCTURED_GRID
POINTS 2601 float
0.0000000e+00 0.0000000e+00 0.0000000e+00 
0.0000000e+00 2.0000000e-02 0.0000000e+00 
2.0000000e-02 0.0000000e+00 0.0000000e+00 
2.0000000e-02 2.0000000e-02 0.0000000e+00 
3.9999999e-02 0.0000000e+00 0.0000000e+00 
0.0000000e+00 3.9999999e-02 0.0000000e+00 
3.9999999e-02 2.0000000e-02 0.0000000e+00 
2.0000000e-02 3.9999999e-02 0.0000000e+00 
3.9999999e-02 3.9999999e-02 0.0000000e+00 
5.9999999e-02 0.0000000e+00 0.0000000e+00 
0.0000000e+00 5.9999999e-02 0.0000000e+00 
5.9999999e-02 2.0000000e-02 0.0000000e+00 
2.0000000e-02 5.9999999e-02 0.0000000e+00 
3.9999999e-02 5.9999999e-02 0.0000000e+00 
5.9999999e-02 3.9999999e-02 0.0000000e+00 
7.9999998e-02 0.0000000e+00 0.0000000e+00 
0.0000000e+00 7.9999998e-02 0.0000000e+00 
7.9999998e-02 2.0000000e-02 0.0000000e+00 
2.0000000e-02 7.9999998e-02 0.0000000e+00 
5.9999999e-02 5.9999999e-02 0.0000000e+00 
7.9999998e-02 3.9999999e-02 0.0000000e+00 
3.9999999e-02 7.9999998e-02 0.0000000e+00 
5.9999999e-02 7.9999998e-02 0.0000000e+00 
7.9999998e-02 5.9999999e-02 0.0000000e+00 
1.0000000e-01 0.0000000e+00 0.0000000e+00 
0.0000000e+00 1.0000000e-01 0.0000000e+00 
1.0000000e-01 2.0000000e-02 0.0000000e+00 
2.0000000e-02 1.0000000e-01 0.0000000e+00 
3.9999999e-02 1.0000000e-01 0.0000000e+00 
1.0000000e-01 3.9999999e-02 0.0000000e+00 
7.9999998e-02 7.9999998e-02 0.0000000e+00 
1.0000000e-01 5.9999999e-02 0.0000000e+00 
5.9999999e-02 1.0000000e-01 0.0000000e+00 
1.2000000e-01 0.0000000e+00 0.0000000e+00 
0.0000000e+00 1.2000000e-01 0.0000000e+00 
1.2000000e-01 2.0000000e-02 0.0000000e+00 
2.0000000e-02 1.2000000e-01 0.0000000e+00 
1.2000000e-01 3.9999999e-02 0.0000000e+00 
3.9999999e-02 1.2000000e-01 0.0000000e+00 
1.0000000e-01 7.9999998e-02 0.0000000e+00 
7.9999998e-02 1.0000000e-01 0.0000000e+00 
1.2000000e-01 5.9999999e-02 0.0000000e+00 
5.9999999e-02 1.2000000e-01 0.0000000e+00 
0.0000000e+00 1.4000000e-01 0.0000000e+00 
1.4000000e-01 0.0000000e+00 0.0000000e+00 
1.0000000e-01 1.0000000e-01 0.0000000e+00 
2.0000000e-02 1.4000000e-01 0.0000000e+00 
1.4000000e-01 2.0000000e-02 0.0000000e+00 
1.2000000e-01 7.9999998e-02 0.0000000e+00 
7.9999998e-02 1.2000000e-01 0.0000000e+00 
3.9999999e-02 1.4000000e-01 0.0000000e+00 
1.4000000e-01 3.9999999e-02 0.0000000e+00 
1.4000000e-01 5.9999999e-02 0.0000000e+00 
5.9999999e-02 1.4000000e-01 0.0000000e+00 
1.2000000e-01 1.0000000e-01 0.0000000e+00 
1.0000000e-01 1.2000000e-01 0.0000000e+00 
1.6000000e-01 0.0000000e+00 0.0000000e+00 
0.0000000e+00 1.6000000e-01 0.0000000e+00 
1.6000000e-01 2.0000000e-02 0.0000000e+00 
7.9999998e-02 1.4000000e-01 0.0000000e+00 
2.0000000e-02 1.6000000e-01 0.0000000e+00 
1.4000000e-01 7.9999998e-02 0.0000000e+00 
1.6000000e-01 3.9999999e-02 0.0000000e+00 
3.9999999e-02 1.6000000e-01 0.0000000e+00 
1.2000000e-01 1.2000000e-01 0.0000000e+00 
1.6000000e-01 5.9999999e-02 0.0000000e+00 
5.9999999e-02 1.6000000e-01 0.0000000e+00 
1.0000000e-01 1.4000000e-01 0.0000000e+00 
1.4000000e-01 1.0000000e-01 0.0000000e+00 
1.6000000e-01 7.9999998e-02 0.0000000e+00 
7.9999998e-02 1.6000000e-01 0.0000000e+00 
0.0000000e+00 1.8000001e-01 0.0000000e+00 
1.8000001e-01 0.0000000e+00 0.0000000e+00 
1.8000001e-01 2.0000000e-02 0.0000000e+00 
2.0000000e-02 1.8000001e-01 0.0000000e+00 
3.9999999e-02 1.8000001e-01 0.0000000e+00 
1.8000001e-01 3.9999999e-02 0.0000000e+00 
1.2000000e-01 1.4000000e-01 0.0000000e+00 
1.4000000e-01 1.2000000e-01 0.0000000e+00 
1.0000000e-01 1.6000000e-01 0.0000000e+00 
1.6000000e-01 1.0000000e-01 0.0000000e+00 
1.8000001e-01 5.9999999e-02 0.0000000e+00 
5.9999999e-02 1.8000001e-01 0.0000000e+00 
7.9999998e-02 1.8000001e-01 0.0000000e+00 
1.8000001e-01 7.9999998e-02 0.0000000e+00 
1.4000000e-01 1.4000000e-01 0.0000000e+00 
1.2000000e-01 1.6000000e-01 0.0000000e+00 
1.6000000e-01 1.2000000e-01 0.0000000e+00 
0.0000000e+00 2.0000000e-01 0.0000000e+00 
2.0000000e-01 0.0000000e+00 0.0000000e+00 
2.0000000e-01 2.0000000e-02 0.0000000e+00 
2.0000000e-02 2.0000000e-01 0.0000000e+00 
2.0000000e-01 3.9999999e-02 0.0000000e+00 
3.9999999e-02 2.0000000e-01 0.0000000e+00 
1.0000000e-01 1.8000001e-01 0.0000000e+00 
1.8000001e-01 1.0000000e-01 0.0000000e+00 
2.0000000e-01 5.9999999e-02 0.0000000e+00 
5.9999999e-02 2.0000000e-01 0.0000000e+00 
1.4000000e-01 1.6000000e-01 0.0000000e+00 
1.6000000e-01 1.4000000e-01 0.0000000e+00 
2.0000000e-01 7.9999998e-02 0.0000000e+00 
7.9999998e-02 2.0000000e-01 0.0000000e+00 
1.8000001e-01 1.2000000e-01 0.0000000e+00 
1.2000000e-01 1.8000001e-01 0.0000000e+00 
2.2000000e-01 0.0000000e+00 0.0000000e+00 
0.0000000e+00 2.2000000e-01 0.0000000e+00 
2.2000000e-01 2.0000000e-02 0.0000000e+00 
2.0000000e-02 2.2000000e-01 0.0000000e+00 
2.2000000e-01 3.9999999e-02 0.0000000e+00 
3.9999999e-02 2.2000000e-01 0.0000000e+00 
1.0000000e-01 2.0000000e-01 0.0000000e+00 
2.0000000e-01 1.0000000e-01 0.0000000e+00 
1.6000000e-01 1.6000000e-01 0.0000000e+00 
2.2000000e-01 5.9999999e-02 0.0000000e+00 
5.9999999e-02 2.2000000e-01 0.0000000e+00 
1.8000001e-01 1.4000000e-01 0.0000000e+00 
1.4000000e-01 1.8000001e-01 0.0000000e+00 
2.0000000e-01 1.2000000e-01 0.0000000e+00 
1.2000000e-01 2.0000000e-01 0.0000000e+00 
7.9999998e-02 2.2000000e-01 0.0000000e+00 
2.2000000e-01 7.9999998e-02 0.0000000e+00 
2.3999999e-01 0.0000000e+00 0.0000000e+00 
0.0000000e+00 2.3999999e-01 0.0000000e+00 
2.3999999e-01 2.0000000e-02 0.0000000e+00 
1.8000001e-01 1.6000000e-01 0.0000000e+00 
1.6000000e-01 1.8000001e-01 0.0000000e+00 
2.0000000e-02 2.3999999e-01 0.0000000e+00 
2.2000000e-01 1.0000000e-01 0.0000000e+00 
1.0000000e-01 2.2000000e-01 0.0000000e+00 
3.9999999e-02 2.3999999e-01 0.0000000e+00 
2.3999999e-01 3.9999999e-02 0.0000000e+00 
1.4000000e-01 2.0000000e-01 0.0000000e+00 
2.0000000e-01 1.4000000e-01 0.0000000e+00 
2.3999999e-01 5.9999999e-02 0.0000000e+00 
5.9999999e-02 2.3999999e-01 0.0000000e+00 
2.2000000e-01 1.2000000e-01 0.0000000e+00 
1.2000000e-01 2.2000000e-01 0.0000000e+00 
7.9999998e-02 2.3999999e-01 0.0000000e+00 
2.3999999e-01 7.9999998e-02 0.0000000e+00 
1.8000001e-01 1.8000001e-01 0.0000000e+00 
2.0000000e-01 1.6000000e-01 0.0000000e+00 
1.6000000e-01 2.0000000e-01 0.0000000e+00 
1.0000000e-01 2.3999999e-01 0.0000000e+00 
2.3999999e-01 1.0000000e-01 0.0000000e+00 
0.0000000e+00 2.5999999e-01 0.0000000e+00 
2.5999999e-01 0.0000000e+00 0.0000000e+00 
1.4000000e-01 2.2000000e-01 0.0000000e+00 
2.2000000e-01 1.4000000e-01 0.0000000e+00 
2.0000000e-02 2.5999999e-01 0.0000000e+00 
2.5999999e-01 2.0000000e-02 0.0000000e+00 
3.9999999e-02 2.5999999e-01 0.0000000e+00 
2.5999999e-01 3.9999999e-02 0.0000000e+00 
5.9999999e-02 2.5999999e-01 0.0000000e+00 
2.5999999e-01 5.9999999e-02 0.0000000e+00 
2.3999999e-01 1.2000000e-01 0.0000000e+00 
1.2000000e-01 2.3999999e-01 0.0000000e+00 
1.8000001e-01 2.0000000e-01 0.0000000e+00 
2.0000000e-01 1.8000001e-01 0.0000000e+00 
2.2000000e-01 1.6000000e-01 0.0000000e+00 
7.9999998e-02 2.5999999e-01 0.0000000e+00 
2.5999999e-01 7.9999998e-02 0.0000000e+00 
1.6000000e-01 2.2000000e-01 0.0000000e+00 
2.3999999e-01 1.4000000e-01 0.0000000e+00 
1.4000000e-01 2.3999999e-01 0.0000000e+00 
1.0000000e-01 2.5999999e-01 0.0000000e+00 
2.5999999e-01 1.0000000e-01 0.0000000e+00 
2.8000000e-01 0.0000000e+00 0.0000000e+00 
0.0000000e+00 2.8000000e-01 0.0000000e+00 
2.0000000e-02 2.8000000e-01 0.0000000e+00 
2.8000000e-01 2.0000000e-02 0.0000000e+00 
2.8000000e-01 3.9999999e-02 0.0000000e+00 
3.9999999e-02 2.8000000e-01 0.0000000e+00 
2.0000000e-01 2.0000000e-01 0.0000000e+00 
1.8000001e-01 2.2000000e-01 0.0000000e+00 
2.2000000e-01 1.8000001e-01 0.0000000e+00 
2.8000000e-01 5.9999999e-02 0.0000000e+00 
2.5999999e-01 1.2000000e-01 0.0000000e+00 
1.2000000e-01 2.5999999e-01 0.0000000e+00 
5.9999999e-02 2.8000000e-01 0.0000000e+00 
2.3999999e-01 1.6000000e-01 0.0000000e+00 
1.6000000e-01 2.3999999e-01 0.0000000e+00 
7.9999998e-02 2.8000000e-01 0.0000000e+00 
2.8000000e-01 7.9999998e-02 0.0000000e+00 
1.4000000e-01 2.5999999e-01 0.0000000e+00 
2.5999999e-01 1.4000000e-01 0.0000000e+00 
2.2000000e-01 2.0000000e-01 0.0000000e+00 
1.0000000e-01 2.8000000e-01 0.0000000e+00 
2.0000000e-01 2.2000000e-01 0.0000000e+00 
2.8000000e-01 1.0000000e-01 0.0000000e+00 
1.8000001e-01 2.3999999e-01 0.0000000e+00 
3.0000001e-01 0.0000000e+00 0.0000000e+00 
2.3999999e-01 1.8000001e-01 0.0000000e+00 
0.0000000e+00 3.0000001e-01 0.0000000e+00 
3.0000001e-01 2.0000000e-02 0.0000000e+00 
2.0000000e-02 3.0000001e-01 0.0000000e+00 
3.9999999e-02 3.0000001e-01 0.0000000e+00 
3.0000001e-01 3.9999999e-02 0.0000000e+00 
1.2000000e-01 2.8000000e-01 0.0000000e+00 
2.8000000e-01 1.2000000e-01 0.0000000e+00 
1.6000000e-01 2.5999999e-01 0.0000000e+00 
2.5999999e-01 1.6000000e-01 0.0000000e+00 
5.9999999e-02 3.0000001e-01 0.0000000e+00 
3.0000001e-01 5.9999999e-02 0.0000000e+00 
7.9999998e-02 3.0000001e-01 0.0000000e+00 
3.0000001e-01 7.9999998e-02 0.0000000e+00 
2.2000000e-01 2.2000000e-01 0.0000000e+00 
2.3999999e-01 2.0000000e-01 0.0000000e+00 
2.0000000e-01 2.3999999e-01 0.0000000e+00 
1.4000000e-01 2.8000000e-01 0.0000000e+00 
2.8000000e-01 1.4000000e-01 0.0000000e+00 
1.0000000e-01 3.0000001e-01 0.0000000e+00 
2.5999999e-01 1.8000001e-01 0.0000000e+00 
1.8000001e-01 2.5999999e-01 0.0000000e+00 
3.0000001e-01 1.0000000e-01 0.0000000e+00 
0.0000000e+00 3.1999999e-01 0.0000000e+00 
3.1999999e-01 0.0000000e+00 0.0000000e+00 
2.0000000e-02 3.1999999e-01 0.0000000e+00 
3.1999999e-01 2.0000000e-02 0.0000000e+00 
3.9999999e-02 3.1999999e-01 0.0000000e+00 
1.6000000e-01 2.8000000e-01 0.0000000e+00 
3.1999999e-01 3.9999999e-02 0.0000000e+00 
2.8000000e-01 1.6000000e-01 0.0000000e+00 
1.2000000e-01 3.0000001e-01 0.0000000e+00 
3.0000001e-01 1.2000000e-01 0.0000000e+00 
2.2000000e-01 2.3999999e-01 0.0000000e+00 
5.9999999e-02 3.1999999e-01 0.0000000e+00 
2.3999999e-01 2.2000000e-01 0.0000000e+00 
3.1999999e-01 5.9999999e-02 0.0000000e+00 
2.0000000e-01 2.5999999e-01 0.0000000e+00 
2.5999999e-01 2.0000000e-01 0.0000000e+00 
[...]
POINT_DATA 2601
FIELD FieldData 1
TEMPERATURE 1 2601  float
-0.0000000e+00
0.0000000e+00
-5.4541823e-02
-5.4868456e-02
-1.0886840e-01
0.0000000e+00
-1.0952118e-01
-5.4758858e-02
-1.0930292e-01
-1.6276531e-01
0.0000000e+00
-1.6374354e-01
-5.4372359e-02
-1.0853191e-01
-1.6341922e-01
-2.1601987e-01
0.0000000e+00
-2.1732248e-01
-5.3713460e-02
-1.6226844e-01
-2.1689618e-01
-1.0721715e-01
-1.6030461e-01
-2.1537285e-01
-2.6842189e-01
0.0000000e+00
-2.7004740e-01
-5.2799698e-02
-1.0539361e-01
-2.6952434e-01
-2.1277028e-01
-2.6763797e-01
-1.5758003e-01
-3.1976458e-01
0.0000000e+00
-3.2171080e-01
-5.1646113e-02
-3.2109725e-01
-1.0309133e-01
-2.6441035e-01
-2.0915788e-01
-3.1885943e-01
-1.5413955e-01
0.0000000e+00
-3.6984530e-01
-2.5992757e-01
-5.0267175e-02
-3.7210929e-01
-3.1502342e-01
-2.0459510e-01
-1.0033917e-01
-3.7141237e-01
-3.6883640e-01
-1.5002632e-01
-3.0969167e-01
-2.5426343e-01
-4.1846642e-01
0.0000000e+00
-4.2104423e-01
-1.9913910e-01
-4.8676342e-02
-3.6441141e-01
-4.2027155e-01
-9.7163983e-02
-3.0295190e-01
-4.1737238e-01
-1.4528042e-01
-2.4748881e-01
-3.5825571e-01
-4.1238037e-01
-1.9284299e-01
0.0000000e+00
-4.6543604e-01
-4.6832255e-01
-4.6886090e-02
-9.3590647e-02
-4.6748218e-01
-2.9488829e-01
-3.5047042e-01
-2.3966953e-01
-4.0542901e-01
-4.6427593e-01
-1.3993900e-01
-1.8575597e-01
-4.5874092e-01
-3.4115252e-01
-2.8557897e-01
-3.9663225e-01
0.0000000e+00
-5.1056880e-01
-5.1375759e-01
-4.4908009e-02
-5.1285762e-01
-8.9642294e-02
-2.3086651e-01
-4.5102510e-01
-5.0936151e-01
-1.3403656e-01
-3.3039194e-01
-3.8609934e-01
-5.0330937e-01
-1.7792372e-01
-4.4125459e-01
-2.7509624e-01
-5.5368656e-01
0.0000000e+00
-5.5716968e-01
-4.2752992e-02
-5.5621815e-01
-8.5340627e-02
-2.2113638e-01
-4.9486279e-01
-3.7393138e-01
-5.5245006e-01
-1.2760553e-01
-4.2955005e-01
-3.1827188e-01
-4.8415929e-01
-2.6350725e-01
-1.6938920e-01
-5.4590815e-01
-5.9461921e-01
0.0000000e+00
-5.9838706e-01
-4.1602314e-01
-3.6022189e-01
-4.0431418e-02
-5.3676671e-01
-2.1053235e-01
-8.0706365e-02
-5.9739161e-01
-3.0486962e-01
-4.7133014e-01
-5.9336984e-01
-1.2067687e-01
-5.2517366e-01
-2.5087523e-01
-1.6019344e-01
-5.8636671e-01
-4.0077686e-01
-4.5649654e-01
-3.4505767e-01
-1.9910532e-01
-5.7656813e-01
0.0000000e+00
-6.3320512e-01
-2.9025796e-01
-5.1126999e-01
-3.7953384e-02
-6.3724631e-01
-7.5759672e-02
-6.3621414e-01
-1.1328069e-01
-6.3195729e-01
-5.6413132e-01
-2.3726070e-01
-3.8390696e-01
-4.3977022e-01
-4.9518529e-01
-1.5037641e-01
-6.2452239e-01
-3.2852066e-01
-5.4920572e-01
-2.7450678e-01
-1.8690500e-01
-6.1410576e-01
-6.6929209e-01
0.0000000e+00
-3.5328913e-02
-6.7359334e-01
-6.7253089e-01
-7.0520535e-02
-4.2125490e-01
-3.6550388e-01
-4.7703895e-01
-6.6805750e-01
-6.0087281e-01
-2.2272292e-01
-1.0544691e-01
-5.3192830e-01
-3.1068981e-01
-1.3997786e-01
-6.6022092e-01
-2.5768477e-01
-5.8498019e-01
-4.5694166e-01
-1.7398089e-01
-4.0104887e-01
-6.4922667e-01
-3.4565520e-01
-7.0273763e-01
-5.1242465e-01
0.0000000e+00
-7.0728374e-01
-3.2568108e-02
-6.5009147e-02
-7.0619661e-01
-2.0732111e-01
-6.3524699e-01
-2.9164305e-01
-5.6657070e-01
-9.7205766e-02
-7.0152521e-01
-1.2903802e-01
-6.9331759e-01
-4.3499845e-01
-4.9081111e-01
-3.7924778e-01
-2.3986085e-01
-6.1844414e-01
-1.6038319e-01
-5.4577470e-01
-3.2444808e-01
-6.8178719e-01
0.0000000e+00
-7.3340982e-01
-2.9681316e-02
-7.3818362e-01
-5.9246194e-02
-2.7145919e-01
-7.3707664e-01
-5.9896535e-01
-1.9111550e-01
-6.6711164e-01
-4.1131222e-01
-8.8588245e-02
-4.6719798e-01
-7.3222542e-01
-3.5594773e-01
-5.2271223e-01
-1.1759818e-01
-7.2367793e-01
-2.2110547e-01
-6.4945734e-01
-5.7694376e-01
-3.0197138e-01
-1.4616354e-01
-7.1165395e-01
-4.4169459e-01
-2.5021923e-01
-6.2897402e-01
0.0000000e+00
-7.6118761e-01
-2.6679246e-02
-4.9749753e-01
-3.8598797e-01
-7.6617008e-01
-1.7416812e-01
-6.9633502e-01
-5.3253073e-02
-7.6504719e-01
-5.5250144e-01
-3.3124825e-01
-7.9626434e-02
-7.6003432e-01
-1.0570111e-01
-7.5117862e-01
-6.7788994e-01
-2.0149136e-01
-2.7831739e-01
-6.0579580e-01
-4.7024271e-01
-4.1441238e-01
-1.3137537e-01
-7.3870468e-01
-3.5913512e-01
-5.2575284e-01
-2.2800712e-01
-6.5646917e-01
-7.8596127e-01
0.0000000e+00
-7.9113179e-01
-2.3573032e-02
-3.0525354e-01
-1.5654330e-01
-5.8004373e-01
-7.2279662e-01
-7.8999621e-01
-4.7052044e-02
-7.8483969e-01
-7.0353694e-02
-2.5358227e-01
-6.3220537e-01
-1.8109393e-01
-4.4107011e-01
-7.0362389e-01
-9.3391284e-02
-7.7570802e-01
-3.8547593e-01
-4.9681529e-01
-3.3087450e-01
-5.5183285e-01
-7.6282930e-01
-1.1607434e-01
-6.8133533e-01
-2.0490998e-01
-6.0521746e-01
-2.7807507e-01
-7.4638861e-01
-1.3830788e-01
-8.0763316e-01
0.0000000e+00
-8.1296951e-01
-2.0374279e-02
-4.0666312e-02
-8.1182379e-01
-4.6579885e-01
-4.1009870e-01
-5.2126759e-01
-3.5501027e-01
-8.0654162e-01
-2.2786616e-01
-6.0804807e-02
-6.5606022e-01
-7.2655416e-01
-1.5999149e-01
-3.0132967e-01
-7.9716718e-01
-5.7561213e-01
-8.0715038e-02
-1.0031836e-01
-7.8393072e-01
-7.0347106e-01
-1.8101786e-01
-2.4982683e-01
-6.2791222e-01
-4.3289015e-01
-4.8850581e-01
-3.7752008e-01
-1.1953147e-01
-7.6701665e-01
-3.2318985e-01
-8.2611763e-01
0.0000000e+00
-5.4351085e-01
-8.3159643e-01
-1.7095072e-02
-8.3044261e-01
-3.4120020e-02
-6.7726249e-01
-2.0127143e-01
-8.2505322e-01
-5.1015958e-02
-1.3826534e-01
-7.4659050e-01
-5.9699446e-01
-2.7064356e-01
-6.7720570e-02
-8.1547022e-01
-3.9809731e-01
-4.5353550e-01
-2.2062512e-01
-6.4803267e-01
-7.2279090e-01
-1.5642384e-01
-5.0892919e-01
-3.4339377e-01
-8.4167637e-02
-8.0192506e-01
-2.9013604e-01
-5.6339741e-01
-7.8460073e-01
-1.0028631e-01
-8.4134185e-01
0.0000000e+00
-8.4693849e-01
-1.3747956e-02
-1.7390220e-01
-6.9573194e-01
-8.4577835e-01
-2.7438220e-02
-2.3894773e-01
-6.1589348e-01
-1.1599991e-01
-7.6365823e-01
-8.4030038e-01
-4.1702142e-01
-4.1024640e-02
-3.6203206e-01
-4.7238442e-01
-8.3054441e-01
-5.4457743e-02
-5.2728337e-01
-3.0817008e-01
-6.6550404e-01
-1.9058612e-01
-1.3122465e-01
-7.3922890e-01
-6.7684382e-02
-8.1674224e-01
-5.8086103e-01
-2.5604364e-01
-7.9907483e-01
-8.0647014e-02
-1.4586656e-01
-3.7755722e-01
-4.3249810e-01
-7.1140862e-01
-2.0634191e-01
-6.3218433e-01
0.0000000e+00
-8.5324568e-01
-1.0345888e-02
-8.5893494e-01
-4.8737407e-01
-3.2356712e-01
-8.5777003e-01
-2.0646781e-02
-7.7769864e-01
-9.3282580e-02
-8.5222256e-01
-3.0869519e-02
-2.7193317e-01
-5.4347253e-01
-4.0977873e-02
-8.4233046e-01
-1.5982850e-01
-6.8029261e-01
-1.0552026e-01
-7.5273484e-01
-2.2108214e-01
-5.9593982e-01
-8.2832539e-01
-5.0932374e-02
-3.9290068e-01
-3.3886057e-01
-4.4796318e-01
-8.1038630e-01
-5.0230873e-01
-2.8554747e-01
-6.0689829e-02
-6.4582676e-01
-1.7296983e-01
-7.2427267e-01
-1.1728077e-01
-8.6178207e-01
0.0000000e+00
-6.9022025e-03
-2.3399408e-01
-5.5536348e-01
-8.6753803e-01
-7.8866589e-01
-7.0202284e-02
-1.3772286e-02
-8.6636996e-01
-2.0590257e-02
-8.6077255e-01
-1.2846079e-01
-6.9231629e-01
-6.0859156e-01
-1.8530589e-01
-8.5078222e-01
-3.5275748e-01
-2.7333410e-02
-4.0728161e-01
-7.6327956e-01
-7.9414956e-02
-4.6179429e-01
-2.9922271e-01
-8.3663040e-01
-3.3976447e-02
-2.4690017e-01
-5.1538539e-01
-1.3900186e-01
-6.5703255e-01
-4.0491443e-02
-8.8262059e-02
-7.3430383e-01
-8.1849438e-01
-5.6703371e-01
-1.9610606e-01
0.0000000e+00
-8.6691749e-01
-8.7271392e-01
-3.4305493e-03
-4.6847530e-02
-7.9652417e-01
-3.6519811e-01
-8.7154406e-01
-6.8419413e-03
-3.1161803e-01
-4.1986382e-01
-9.6654966e-02
-7.0175201e-01
-8.6591673e-01
-6.1653107e-01
-1.4838018e-01
-1.0227395e-02
-2.5876808e-01
-4.7387642e-01
-1.3577808e-02
-8.5586697e-01
-7.7083123e-01
-5.3009748e-02
-5.2642280e-01
-2.0734818e-01
-8.4162605e-01
-1.6882202e-02
-6.6571462e-01
-1.0448868e-01
-5.7681239e-01
-1.5801357e-01
-5.8936179e-02
-7.4149096e-01
-8.2336998e-01
-2.0128276e-02
0.0000000e+00
0.0000000e+00
0.0000000e+00
0.0000000e+00
-2.3303242e-02
0.0000000e+00
-8.6863154e-01
-8.0124646e-01
-4.8433086e-01
-2.1788050e-01
5.5152810e-05
-8.7444198e-01
-6.2447089e-01
-1.1128218e-01
-8.7327206e-01
1.1650533e-04
-6.4563967e-02
-7.0851642e-01
1.7770065e-04
-8.6763495e-01
-5.3548473e-01
-1.6722630e-01
-7.7536440e-01
-2.6395269e-02
2.3437952e-04
-8.5756546e-01
0.0000000e+00
0.0000000e+00
-6.9800816e-02
-8.4329426e-01
2.8349026e-04
0.0000000e+00
-6.7204136e-01
-1.1931994e-01
-5.8455449e-01
0.0000000e+00
0.0000000e+00
-7.4579656e-01
-2.9396057e-02
-8.2499659e-01
3.2236587e-04
0.0000000e+00
0.0000000e+00
-7.4226841e-02
-6.3037461e-01
3.4713899e-04
-8.0281842e-01
-7.1256131e-01
-3.2300595e-02
-8.6691749e-01
0.0000000e+00
-8.7271553e-01
3.5407953e-03
7.0748897e-03
-5.4299212e-01
-1.2714419e-01
-8.7154722e-01
0.0000000e+00
1.0582933e-02
-8.6592096e-01
0.0000000e+00
0.0000000e+00
3.4918505e-04
-7.7686524e-01
0.0000000e+00
-8.5587168e-01
1.4047347e-02
-3.5093378e-02
-6.7582655e-01
0.0000000e+00
0.0000000e+00
-5.9005779e-01
-8.0104798e-02
1.7451558e-02
-8.4163004e-01
-7.4720228e-01
3.0474443e-04
0.0000000e+00
0.0000000e+00
-8.2337093e-01
2.0779153e-02
-6.3408363e-01
-3.7432637e-02
0.0000000e+00
0.0000000e+00
0.0000000e+00
0.0000000e+00
2.4012957e-02
-8.0123985e-01
1.4011987e-04
-7.1382570e-01
0.0000000e+00
0.0000000e+00
-8.6178207e-01
0.0000000e+00
7.0121968e-03
-8.6754155e-01
0.0000000e+00
-8.6637664e-01
1.4004863e-02
-8.6078185e-01
2.0945797e-02
0.0000000e+00
0.0000000e+00
-7.7534097e-01
2.7134158e-02
-8.5079306e-01
-4.1075904e-02
-5.9353697e-01
2.7804378e-02
-6.7682147e-01
-4.0820430e-04
-8.3664089e-01
3.4550771e-02
0.0000000e+00
0.0000000e+00
-7.4573684e-01
3.0123370e-02
0.0000000e+00
0.0000000e+00
-8.1850123e-01
0.0000000e+00
0.0000000e+00
4.1155163e-02
-2.3753890e-03
-6.3431132e-01
0.0000000e+00
0.0000000e+00
0.0000000e+00
0.0000000e+00
-7.1242034e-01
3.2968476e-02
-7.9652095e-01
4.7587276e-02
0.0000000e+00
-8.5324568e-01
-8.5894060e-01
1.0455260e-02
0.0000000e+00
0.0000000e+00
2.0878229e-02
-8.5778099e-01
-8.5223818e-01
-7.7080578e-01
3.1223973e-02
5.3816944e-02
-5.9358507e-01
-3.8242869e-03
3.5737474e-02
-6.7550337e-01
4.1448936e-02
0.0000000e+00
-8.4234965e-01
0.0000000e+00
0.0000000e+00
0.0000000e+00
0.0000000e+00
0.0000000e+00
0.0000000e+00
5.1510017e-02
-8.2834643e-01
-7.4141705e-01
5.9817936e-02
0.0000000e+00
0.0000000e+00
3.8783073e-02
-6.3332707e-01
-8.1040639e-01
6.1363667e-02
0.0000000e+00
0.0000000e+00
-7.0834529e-01
6.5579571e-02
0.0000000e+00
0.0000000e+00
7.0965104e-02
-7.8868014e-01
0.0000000e+00
-8.4134185e-01
0.0000000e+00
0.0000000e+00
-8.4694672e-01
1.3856133e-02
2.7667301e-02
0.0000000e+00
0.0000000e+00
3.9856821e-02
-5.9250396e-01
-8.4579438e-01
-7.6327890e-01
8.0267645e-02
-6.7165160e-01
0.0000000e+00
0.0000000e+00
-8.4032369e-01
4.1375969e-02
7.1160786e-02
0.0000000e+00
0.0000000e+00
5.4925758e-02
-8.3057433e-01
8.9224577e-02
0.0000000e+00
-7.3427653e-01
0.0000000e+00
6.8260342e-02
-8.1677771e-01
0.0000000e+00
0.0000000e+00
-6.2956560e-01
7.6544814e-02
8.1322275e-02
-7.9911453e-01
0.0000000e+00
0.0000000e+00
0.0000000e+00
-7.0165288e-01
0.0000000e+00
9.7780205e-02
0.0000000e+00
9.4051495e-02
-7.7774084e-01
0.0000000e+00
0.0000000e+00
-5.8876407e-01
8.0097429e-02
0.0000000e+00
-8.2611763e-01
0.0000000e+00
0.0000000e+00
1.7201340e-02
-8.3160752e-01
0.0000000e+00
0.0000000e+00
-8.3046442e-01
3.4345165e-02
1.0638370e-01
1.0591884e-01
-6.6553593e-01
-7.5277972e-01
-8.2508546e-01
5.1361538e-02
0.0000000e+00
0.0000000e+00
6.8181455e-02
-8.1551272e-01
-7.2431475e-01
1.1824631e-01
0.0000000e+00
0.0000000e+00
0.0000000e+00
8.4735632e-02
0.0000000e+00
-8.0197763e-01
1.1321899e-01
-6.2391829e-01
0.0000000e+00
0.0000000e+00
0.0000000e+00
0.0000000e+00
-7.8466374e-01
1.0095305e-01
0.0000000e+00
0.0000000e+00
-6.9242615e-01
1.2955809e-01
1.1675912e-01
0.0000000e+00
0.0000000e+00
-7.6373297e-01
1.1924519e-01
-5.8336335e-01
0.0000000e+00
0.0000000e+00
-8.0763316e-01
0.0000000e+00
2.0477867e-02
-6.5704221e-01
1.4017928e-01
-8.1298381e-01
-7.3931819e-01
1.3207309e-01
0.0000000e+00
0.0000000e+00
4.0885855e-02
-8.1185198e-01
0.0000000e+00
0.0000000e+00
0.0000000e+00
-8.0658376e-01
6.1141867e-02
0.0000000e+00
0.0000000e+00
-7.9722345e-01
8.1164621e-02
0.0000000e+00
0.0000000e+00
-7.1152467e-01
1.4680418e-01
0.0000000e+00
0.0000000e+00
-6.1876273e-01
1.5001342e-01
0.0000000e+00
0.0000000e+00
1.0087233e-01
-7.8400189e-01
1.2018118e-01
-7.6710433e-01
0.0000000e+00
-6.8043238e-01
0.0000000e+00
1.6084589e-01
0.0000000e+00
0.0000000e+00
1.5815990e-01
-5.7615131e-01
-7.4669784e-01
1.3900332e-01
0.0000000e+00
0.0000000e+00
0.0000000e+00
0.0000000e+00
0.0000000e+00
0.0000000e+00
-6.4610684e-01
1.7405719e-01
0.0000000e+00
-7.8596127e-01
2.3673203e-02
0.0000000e+00
0.0000000e+00
-7.2292405e-01
1.5724427e-01
-7.9114944e-01
4.7264390e-02
-7.9003119e-01
7.0679650e-02
-7.8489220e-01
0.0000000e+00
0.0000000e+00
-5.3429246e-01
1.6617936e-01
9.3825810e-02
0.0000000e+00
0.0000000e+00
-7.7577865e-01
1.7479958e-01
-6.9590062e-01
-6.0870516e-01
1.8631126e-01
1.1660918e-01
-7.6291949e-01
0.0000000e+00
0.0000000e+00
0.0000000e+00
0.0000000e+00
0.0000000e+00
-7.4650085e-01
1.3893402e-01
1.9154930e-01
-6.6572523e-01
0.0000000e+00
0.0000000e+00
0.0000000e+00
0.0000000e+00
1.9685447e-01
-5.6674081e-01
0.0000000e+00
0.0000000e+00
-7.2669280e-01
1.6070062e-01
0.0000000e+00
0.0000000e+00
2.0736194e-01
-6.3250399e-01
1.8180299e-01
-7.0364320e-01
0.0000000e+00
-7.6118761e-01
0.0000000e+00
0.0000000e+00
-7.6619118e-01
2.6775353e-02
5.3456835e-02
-7.6508915e-01
2.0695192e-01
-5.2551335e-01
0.0000000e+00
0.0000000e+00
-7.6009744e-01
7.9939067e-02
2.0212598e-01
2.2204421e-01
0.0000000e+00
0.0000000e+00
1.0611747e-01
-7.5126374e-01
-5.9624743e-01
-6.7747867e-01
0.0000000e+00
0.0000000e+00
0.0000000e+00
0.0000000e+00
1.3188703e-01
-7.3881358e-01
0.0000000e+00
0.0000000e+00
2.2154208e-01
-6.4830947e-01
0.0000000e+00
1.5714096e-01
-7.2293240e-01
0.0000000e+00
0.0000000e+00
0.0000000e+00
2.3559861e-01
-5.5751550e-01
0.0000000e+00
0.0000000e+00
-7.0379162e-01
1.8176888e-01
2.3990975e-01
0.0000000e+00
0.0000000e+00
-6.1623544e-01
0.0000000e+00
-6.8154263e-01
2.0565496e-01
0.0000000e+00
0.0000000e+00
0.0000000e+00
0.0000000e+00
0.0000000e+00
-7.3340982e-01
2.4711820e-01
2.9772833e-02
-5.1492804e-01
-7.3820823e-01
5.9440244e-02
0.0000000e+00
0.0000000e+00
-7.3712558e-01
8.8885799e-02
0.0000000e+00
0.0000000e+00
-7.3229903e-01
2.5706086e-01
-5.8134460e-01
0.0000000e+00
0.0000000e+00
-6.5631819e-01
2.2867544e-01
1.1799394e-01
-7.2377723e-01
1.4664894e-01
-7.1178085e-01
0.0000000e+00
0.0000000e+00
2.5858918e-01
-4.7313407e-01
2.5069648e-01
0.0000000e+00
0.0000000e+00
-6.2823617e-01
-6.9649285e-01
1.7473367e-01
2.7288932e-01
-5.4380220e-01
0.0000000e+00
0.0000000e+00
0.0000000e+00
0.0000000e+00
2.0212813e-01
0.0000000e+00
0.0000000e+00
-6.7808414e-01
-5.9740233e-01
2.7156943e-01
0.0000000e+00
0.0000000e+00
0.0000000e+00
0.0000000e+00
2.2870779e-01
2.8641695e-01
-5.0227660e-01
-6.5670741e-01
0.0000000e+00
0.0000000e+00
0.0000000e+00
-7.0273763e-01
0.0000000e+00
0.0000000e+00
3.2654636e-02
-7.0731181e-01
6.5192632e-02
-7.0625240e-01
2.9114416e-01
-5.6393814e-01
9.7486906e-02
-7.0160896e-01
2.5434184e-01
-6.3249892e-01
-6.9343030e-01
0.0000000e+00
0.0000000e+00
1.2941137e-01
-4.6144751e-01
2.9948980e-01
-6.8193084e-01
1.6084011e-01
0.0000000e+00
0.0000000e+00
0.0000000e+00
0.0000000e+00
0.0000000e+00
2.7889088e-01
-6.0558099e-01
3.0917346e-01
0.0000000e+00
0.0000000e+00
-5.2785516e-01
0.0000000e+00
-6.6728961e-01
0.0000000e+00
1.9164629e-01
0.0000000e+00
0.0000000e+00
2.2170104e-01
-6.4967483e-01
3.0220670e-01
-5.7606977e-01
0.0000000e+00
0.0000000e+00
0.0000000e+00
0.0000000e+00
3.2571095e-01
-4.8968765e-01
0.0000000e+00
0.0000000e+00
2.5087208e-01
-6.2923861e-01
-6.6929209e-01
0.0000000e+00
-6.7362469e-01
3.5410177e-02
7.0692867e-02
-6.7259306e-01
0.0000000e+00
0.0000000e+00
3.2412228e-01
-5.4407084e-01
0.0000000e+00
0.0000000e+00
1.0571071e-01
-6.6815072e-01
0.0000000e+00
0.0000000e+00
-6.0611790e-01
2.7902234e-01
-6.6034609e-01
1.4032757e-01
0.0000000e+00
0.0000000e+00
0.0000000e+00
0.0000000e+00
3.3921155e-01
-4.4798866e-01
-6.4938563e-01
1.7440782e-01
0.0000000e+00
0.0000000e+00
3.0600876e-01
-5.8043796e-01
0.0000000e+00
0.0000000e+00
-5.0974631e-01
3.4449100e-01
-6.3544285e-01
2.0781544e-01
0.0000000e+00
0.0000000e+00
-6.1868167e-01
2.4041325e-01
-4.0716511e-01
3.5289884e-01
3.3168027e-01
-5.5231607e-01
0.0000000e+00
0.0000000e+00
-4.7308213e-01
3.6300099e-01
0.0000000e+00
0.0000000e+00
0.0000000e+00
-5.9925151e-01
0.0000000e+00
0.0000000e+00
2.7206179e-01
0.0000000e+00
0.0000000e+00
3.5588074e-01
-5.2187282e-01
0.0000000e+00
-6.3320512e-01
-6.3728070e-01
3.8029224e-02
0.0000000e+00
0.0000000e+00
-6.3628221e-01
7.5920470e-02
-5.7728797e-01
3.0261847e-01
1.1352658e-01
-6.3205916e-01
0.0000000e+00
0.0000000e+00
3.7984827e-01
-4.3477604e-01
0.0000000e+00
0.0000000e+00
1.5070178e-01
0.0000000e+00
0.0000000e+00
-6.2465876e-01
-4.8922148e-01
-6.1427820e-01
1.8730113e-01
3.7843379e-01
3.3193660e-01
-5.5291587e-01
0.0000000e+00
0.0000000e+00
-6.0108405e-01
0.0000000e+00
0.0000000e+00
2.2317994e-01
0.0000000e+00
0.0000000e+00
3.9337569e-01
-3.9337650e-01
0.0000000e+00
0.0000000e+00
3.5986507e-01
-5.2625370e-01
0.0000000e+00
0.0000000e+00
-5.8523434e-01
2.5819308e-01
3.9920956e-01
-4.5455676e-01
0.0000000e+00
0.0000000e+00
0.0000000e+00
0.0000000e+00
-5.6687385e-01
2.9219443e-01
3.8624719e-01
-4.9741796e-01
0.0000000e+00
-5.9461921e-01
4.0501747e-02
-5.9842402e-01
0.0000000e+00
0.0000000e+00
4.0716699e-01
-3.5289958e-01
8.0855444e-02
-5.9746480e-01
-5.4613483e-01
4.1788515e-01
-4.1788444e-01
0.0000000e+00
0.0000000e+00
3.2503599e-01
-5.9347916e-01
1.2090456e-01
0.0000000e+00
-5.8651263e-01
1.6049413e-01
0.0000000e+00
0.0000000e+00
-4.6653613e-01
0.0000000e+00
0.0000000e+00
4.1092709e-01
0.0000000e+00
0.0000000e+00
3.5656783e-01
-5.7675183e-01
1.9947037e-01
-5.2313954e-01
0.0000000e+00
0.0000000e+00
2.3768026e-01
-5.6435502e-01
0.0000000e+00
0.0000000e+00
4.3477732e-01
-3.7984812e-01
0.0000000e+00
0.0000000e+00
0.0000000e+00
-4.9800390e-01
3.8663745e-01
0.0000000e+00
-4.3373162e-01
4.3373209e-01
2.7497113e-01
-5.4947293e-01
0.0000000e+00
-5.3224397e-01
0.0000000e+00
3.1119034e-01
4.1509116e-01
0.0000000e+00
-4.7084269e-01
0.0000000e+00
4.4799218e-01
-3.3921152e-01
0.0000000e+00
0.0000000e+00
0.0000000e+00
0.0000000e+00
4.5455745e-01
0.0000000e+00
-5.5368656e-01
-3.9920899e-01
-5.5720878e-01
4.2817798e-02
-5.5629539e-01
0.0000000e+00
3.4618476e-01
0.0000000e+00
8.5477918e-02
-5.1279533e-01
-5.5256522e-01
1.2781496e-01
0.0000000e+00
0.0000000e+00
1.6966520e-01
-5.4606146e-01
0.0000000e+00
0.0000000e+00
-4.4177303e-01
4.4177333e-01
-4.9124470e-01
3.7980077e-01
-5.3695899e-01
2.1086644e-01
4.6145675e-01
-2.9948837e-01
4.7308344e-01
-3.6300054e-01
0.0000000e+00
0.0000000e+00
0.0000000e+00
0.0000000e+00
2.5125775e-01
-5.2540666e-01
4.6653631e-01
-4.6770385e-01
-4.1092661e-01
4.1188449e-01
0.0000000e+00
-5.1154631e-01
2.9067922e-01
0.0000000e+00
0.0000000e+00
0.0000000e+00
0.0000000e+00
0.0000000e+00
0.0000000e+00
3.2897183e-01
4.8969066e-01
-3.2571048e-01
-4.9550897e-01
4.7314864e-01
0.0000000e+00
0.0000000e+00
-2.5858894e-01
-4.4228196e-01
4.4228226e-01
-3.7843329e-01
4.8922157e-01
0.0000000e+00
0.0000000e+00
0.0000000e+00
-5.1056880e-01
0.0000000e+00
0.0000000e+00
-5.1379818e-01
4.4967320e-02
-4.7741500e-01
3.6597735e-01
8.9767836e-02
-5.1293766e-01
-5.0948066e-01
1.3422777e-01
-4.1509074e-01
4.7084275e-01
1.7817518e-01
-5.0346756e-01
0.0000000e+00
0.0000000e+00
5.0228339e-01
-2.8641582e-01
4.0153834e-01
-4.5737621e-01
0.0000000e+00
0.0000000e+00
-3.4449053e-01
0.0000000e+00
0.0000000e+00
-4.9506053e-01
2.2143991e-01
5.0974643e-01
0.0000000e+00
0.0000000e+00
-4.8439774e-01
2.6385346e-01
0.0000000e+00
0.0000000e+00
-3.8624671e-01
4.9741769e-01
0.0000000e+00
0.0000000e+00
-4.3549827e-01
4.3549863e-01
-4.7161129e-01
3.0524907e-01
0.0000000e+00
0.0000000e+00
-2.4711835e-01
5.1493782e-01
-3.0917302e-01
5.2785552e-01
3.4546155e-01
-4.5682332e-01
4.6770400e-01
-4.1188407e-01
0.0000000e+00
0.0000000e+00
0.0000000e+00
0.0000000e+00
5.2187204e-01
-3.5588023e-01
3.8432753e-01
0.0000000e+00
-4.6543604e-01
-4.4014642e-01
0.0000000e+00
4.6939943e-02
-4.6836382e-01
0.0000000e+00
0.0000000e+00
-4.6756348e-01
9.3704492e-02
0.0000000e+00
0.0000000e+00
0.0000000e+00
1.4011210e-01
4.9800369e-01