# vtk DataFile Version 4.0
vtk output
ASCII
DATASET UNSTRUCTURED_GRID
POINTS 2601 float
0.0000000e+00 0.0000000e+00 0.0000000e+00 
0.0000000e+00 2.0000000e-02 0.0000000e+00 
2.0000000e-02 0.0000000e+00 0.0000000e+00 
2.0000000e-02 2.0000000e-02 0.0000000e+00 
3.9999999e-02 0.0000000e+00 0.0000000e+00 
0.0000000e+00 3.9999999e-02 0.0000000e+00 
3.9999999e-02 2.0000000e-02 0.0000000e+00 
2.0000000e-02 3.9999999e-02 0.0000000e+00 
3.9999999e-02 3.9999999e-02 0.0000000e+00 
5.9999999e-02 0.0000000e+00 0.0000000e+00 
0.0000000e+00 5.9999999e-02 0.0000000e+00 
5.9999999e-02 2.0000000e-02 0.0000000e+00 
2.0000000e-02 5.9999999e-02 0.0000000e+00 
3.9999999e-02 5.9999999e-02 0.0000000e+00 
5.9999999e-02 3.9999999e-02 0.0000000e+00 
7.9999998e-02 0.0000000e+00 0.0000000e+00 
0.0000000e+00 7.9999998e-02 0.0000000e+00 
7.9999998e-02 2.0000000e-02 0.0000000e+00 
2.0000000e-02 7.9999998e-02 0.0000000e+00 
5.9999999e-02 5.9999999e-02 0.0000000e+00 
7.9999998e-02 3.9999999e-02 0.0000000e+00 
3.9999999e-02 7.9999998e-02 0.0000000e+00 
5.9999999e-02 7.9999998e-02 0.0000000e+00 
7.9999998e-02 5.9999999e-02 0.0000000e+00 
1.0000000e-01 0.0000000e+00 0.0000000e+00 
0.0000000e+00 1.0000000e-01 0.0000000e+00 
1.0000000e-01 2.0000000e-02 0.0000000e+00 
2.0000000e-02 1.0000000e-01 0.0000000e+00 
3.9999999e-02 1.0000000e-01 0.0000000e+00 
1.0000000e-01 3.9999999e-02 0.0000000e+00 
7.9999998e-02 7.9999998e-02 0.0000000e+00 
1.0000000e-01 5.9999999e-02 0.0000000e+00 
5.9999999e-02 1.0000000e-01 0.0000000e+00 
1.2000000e-01 0.0000000e+00 0.0000000e+00 
0.0000000e+00 1.2000000e-01 0.0000000e+00 
1.2000000e-01 2.0000000e-02 0.0000000e+00 
2.0000000e-02 1.2000000e-01 0.0000000e+00 
1.2000000e-01 3.9999999e-02 0.0000000e+00 
3.9999999e-02 1.2000000e-01 0.0000000e+00 
1.0000000e-01 7.9999998e-02 0.0000000e+00 
7.9999998e-02 1.0000000e-01 0.0000000e+00 
1.2000000e-01 5.9999999e-02 0.0000000e+00 
5.9999999e-02 1.2000000e-01 0.0000000e+00 
0.0000000e+00 1.4000000e-01 0.0000000e+00 
1.4000000e-01 0.0000000e+00 0.0000000e+00 
1.0000000e-01 1.0000000e-01 0.0000000e+00 
2.0000000e-02 1.4000000e-01 0.0000000e+00 
1.4000000e-01 2.0000000e-02 0.0000000e+00 
1.2000000e-01 7.9999998e-02 0.0000000e+00 
7.9999998e-02 1.2000000e-01 0.0000000e+00 
3.9999999e-02 1.4000000e-01 0.0000000e+00 
1.4000000e-01 3.9999999e-02 0.0000000e+00 
1.4000000e-01 5.9999999e-02 0.0000000e+00 
5.9999999e-02 1.4000000e-01 0.0000000e+00 
1.2000000e-01 1.0000000e-01 0.0000000e+00 
1.0000000e-01 1.2000000e-01 0.0000000e+00 
1.6000000e-01 0.0000000e+00 0.0000000e+00 
0.0000000e+00 1.6000000e-01 0.0000000e+00 
1.6000000e-01 2.0000000e-02 0.0000000e+00 
7.9999998e-02 1.4000000e-01 0.0000000e+00 
2.0000000e-02 1.6000000e-01 0.0000000e+00 
1.4000000e-01 7.9999998e-02 0.0000000e+00 
1.6000000e-01 3.9999999e-02 0.0000000e+00 
3.9999999e-02 1.6000000e-01 0.0000000e+00 
1.2000000e-01 1.2000000e-01 0.0000000e+00 
1.6000000e-01 5.9999999e-02 0.0000000e+00 
5.9999999e-02 1.6000000e-01 0.0000000e+00 
1.0000000e-01 1.4000000e-01 0.0000000e+00 
1.4000000e-01 1.0000000e-01 0.0000000e+00 
1.6000000e-01 7.9999998e-02 0.0000000e+00 
7.9999998e-02 1.6000000e-01 0.0000000e+00 
0.0000000e+00 1.8000001e-01 0.0000000e+00 
1.8000001e-01 0.0000000e+00 0.0000000e+00 
1.8000001e-01 2.0000000e-02 0.0000000e+00 
2.0000000e-02 1.8000001e-01 0.0000000e+00 
3.9999999e-02 1.8000001e-01 0.0000000e+00 
1.8000001e-01 3.9999999e-02 0.0000000e+00 
1.2000000e-01 1.4000000e-01 0.0000000e+00 
1.4000000e-01 1.2000000e-01 0.0000000e+00 
1.0000000e-01 1.6000000e-01 0.0000000e+00 
1.6000000e-01 1.0000000e-01 0.0000000e+00 
1.8000001e-01 5.9999999e-02 0.0000000e+00 
5.9999999e-02 1.8000001e-01 0.0000000e+00 
7.9999998e-02 1.8000001e-01 0.0000000e+00 
1.8000001e-01 7.9999998e-02 0.0000000e+00 
1.4000000e-01 1.4000000e-01 0.0000000e+00 
1.2000000e-01 1.6000000e-01 0.0000000e+00 
1.6000000e-01 1.2000000e-01 0.0000000e+00 
0.0000000e+00 2.0000000e-01 0.0000000e+00 
2.0000000e-01 0.0000000e+00 0.0000000e+00 
2.0000000e-01 2.0000000e-02 0.0000000e+00 
2.0000000e-02 2.0000000e-01 0.0000000e+00 
2.0000000e-01 3.9999999e-02 0.0000000e+00 
3.9999999e-02 2.0000000e-01 0.0000000e+00 
1.0000000e-01 1.8000001e-01 0.0000000e+00 
1.8000001e-01 1.0000000e-01 0.0000000e+00 
2.0000000e-01 5.9999999e-02 0.0000000e+00 
5.9999999e-02 2.0000000e-01 0.0000000e+00 
1.4000000e-01 1.6000000e-01 0.0000000e+00 
1.6000000e-01 1.4000000e-01 0.0000000e+00 
2.0000000e-01 7.9999998e-02 0.0000000e+00 
7.9999998e-02 2.0000000e-01 0.0000000e+00 
1.8000001e-01 1.2000000e-01 0.0000000e+00 
1.2000000e-01 1.8000001e-01 0.0000000e+00 
2.2000000e-01 0.0000000e+00 0.0000000e+00 
0.0000000e+00 2.2000000e-01 0.0000000e+00 
2.2000000e-01 2.0000000e-02 0.0000000e+00 
2.0000000e-02 2.2000000e-01 0.0000000e+00 
2.2000000e-01 3.9999999e-02 0.0000000e+00 
3.9999999e-02 2.2000000e-01 0.0000000e+00 
1.0000000e-01 2.0000000e-01 0.0000000e+00 
2.0000000e-01 1.0000000e-01 0.0000000e+00 
1.6000000e-01 1.6000000e-01 0.0000000e+00 
2.2000000e-01 5.9999999e-02 0.0000000e+00 
5.9999999e-02 2.2000000e-01 0.0000000e+00 
1.8000001e-01 1.4000000e-01 0.0000000e+00 
1.4000000e-01 1.8000001e-01 0.0000000e+00 
2.0000000e-01 1.2000000e-01 0.0000000e+00 
1.2000000e-01 2.0000000e-01 0.0000000e+00 
7.9999998e-02 2.2000000e-01 0.0000000e+00 
2.2000000e-01 7.9999998e-02 0.0000000e+00 
2.3999999e-01 0.0000000e+00 0.0000000e+00 
0.0000000e+00 2.3999999e-01 0.0000000e+00 
2.3999999e-01 2.0000000e-02 0.0000000e+00 
1.8000001e-01 1.6000000e-01 0.0000000e+00 
1.6000000e-01 1.8000001e-01 0.0000000e+00 
2.0000000e-02 2.3999999e-01 0.0000000e+00 
2.2000000e-01 1.0000000e-01 0.0000000e+00 
1.0000000e-01 2.2000000e-01 0.0000000e+00 
3.9999999e-02 2.3999999e-01 0.0000000e+00 
2.3999999e-01 3.9999999e-02 0.0000000e+00 
1.4000000e-01 2.0000000e-01 0.0000000e+00 
2.0000000e-01 1.4000000e-01 0.0000000e+00 
2.3999999e-01 5.9999999e-02 0.0000000e+00 
5.9999999e-02 2.3999999e-01 0.0000000e+00 
2.2000000e-01 1.2000000e-01 0.0000000e+00 
1.2000000e-01 2.2000000e-01 0.0000000e+00 
7.9999998e-02 2.3999999e-01 0.0000000e+00 
2.3999999e-01 7.9999998e-02 0.0000000e+00 
1.8000001e-01 1.8000001e-01 0.0000000e+00 
2.0000000e-01 1.6000000e-01 0.0000000e+00 
1.6000000e-01 2.0000000e-01 0.0000000e+00 
1.0000000e-01 2.3999999e-01 0.0000000e+00 
2.3999999e-01 1.0000000e-01 0.0000000e+00 
0.0000000e+00 2.5999999e-01 0.0000000e+00 
2.5999999e-01 0.0000000e+00 0.0000000e+00 
1.4000000e-01 2.2000000e-01 0.0000000e+00 
2.2000000e-01 1.4000000e-01 0.0000000e+00 
2.0000000e-02 2.5999999e-01 0.0000000e+00 
2.5999999e-01 2.0000000e-02 0.0000000e+00 
3.9999999e-02 2.5999999e-01 0.0000000e+00 
2.5999999e-01 3.9999999e-02 0.0000000e+00 
5.9999999e-02 2.5999999e-01 0.0000000e+00 
2.5999999e-01 5.9999999e-02 0.0000000e+00 
2.3999999e-01 1.2000000e-01 0.0000000e+00 
1.2000000e-01 2.3999999e-01 0.0000000e+00 
1.8000001e-01 2.0000000e-01 0.0000000e+00 
2.0000000e-01 1.8000001e-01 0.0000000e+00 
2.2000000e-01 1.6000000e-01 0.0000000e+00 
7.9999998e-02 2.5999999e-01 0.0000000e+00 
2.5999999e-01 7.9999998e-02 0.0000000e+00 
1.6000000e-01 2.2000000e-01 0.0000000e+00 
2.3999999e-01 1.4000000e-01 0.0000000e+00 
1.4000000e-01 2.3999999e-01 0.0000000e+00 
1.0000000e-01 2.5999999e-01 0.0000000e+00 
2.5999999e-01 1.0000000e-01 0.0000000e+00 
2.8000000e-01 0.0000000e+00 0.0000000e+00 
0.0000000e+00 2.8000000e-01 0.0000000e+00 
2.0000000e-02 2.8000000e-01 0.0000000e+00 
2.8000000e-01 2.0000000e-02 0.0000000e+00 
2.8000000e-01 3.9999999e-02 0.0000000e+00 
3.9999999e-02 2.8000000e-01 0.0000000e+00 
2.0000000e-01 2.0000000e-01 0.0000000e+00 
1.8000001e-01 2.2000000e-01 0.0000000e+00 
2.2000000e-01 1.8000001e-01 0.0000000e+00 
2.8000000e-01 5.9999999e-02 0.0000000e+00 
2.5999999e-01 1.2000000e-01 0.0000000e+00 
1.2000000e-01 2.5999999e-01 0.0000000e+00 
5.9999999e-02 2.8000000e-01 0.0000000e+00 
2.3999999e-01 1.6000000e-01 0.0000000e+00 
1.6000000e-01 2.3999999e-01 0.0000000e+00 
7.9999998e-02 2.8000000e-01 0.0000000e+00 
2.8000000e-01 7.9999998e-02 0.0000000e+00 
1.4000000e-01 2.5999999e-01 0.0000000e+00 
2.5999999e-01 1.4000000e-01 0.0000000e+00 
2.2000000e-01 2.0000000e-01 0.0000000e+00 
1.0000000e-01 2.8000000e-01 0.0000000e+00 
2.0000000e-01 2.2000000e-01 0.0000000e+00 
2.8000000e-01 1.0000000e-01 0.0000000e+00 
1.8000001e-01 2.3999999e-01 0.0000000e+00 
3.0000001e-01 0.0000000e+00 0.0000000e+00 
2.3999999e-01 1.8000001e-01 0.0000000e+00 
0.0000000e+00 3.0000001e-01 0.0000000e+00 
3.0000001e-01 2.0000000e-02 0.0000000e+00 
2.0000000e-02 3.0000001e-01 0.0000000e+00 
3.9999999e-02 3.0000001e-01 0.0000000e+00 
3.0000001e-01 3.9999999e-02 0.0000000e+00 
1.2000000e-01 2.8000000e-01 0.0000000e+00 
2.8000000e-01 1.2000000e-01 0.0000000e+00 
1.6000000e-01 2.5999999e-01 0.0000000e+00 
2.5999999e-01 1.6000000e-01 0.0000000e+00 
5.9999999e-02 3.0000001e-01 0.0000000e+00 
3.0000001e-01 5.9999999e-02 0.0000000e+00 
7.9999998e-02 3.0000001e-01 0.0000000e+00 
3.0000001e-01 7.9999998e-02 0.0000000e+00 
2.2000000e-01 2.2000000e-01 0.0000000e+00 
2.3999999e-01 2.0000000e-01 0.0000000e+00 
2.0000000e-01 2.3999999e-01 0.0000000e+00 
1.4000000e-01 2.8000000e-01 0.0000000e+00 
2.8000000e-01 1.4000000e-01 0.0000000e+00 
1.0000000e-01 3.0000001e-01 0.0000000e+00 
2.5999999e-01 1.8000001e-01 0.0000000e+00 
1.8000001e-01 2.5999999e-01 0.0000000e+00 
3.0000001e-01 1.0000000e-01 0.0000000e+00 
0.0000000e+00 3.1999999e-01 0.0000000e+00 
3.1999999e-01 0.0000000e+00 0.0000000e+00 
2.0000000e-02 3.1999999e-01 0.0000000e+00 
3.1999999e-01 2.0000000e-02 0.0000000e+00 
3.9999999e-02 3.1999999e-01 0.0000000e+00 
1.6000000e-01 2.8000000e-01 0.0000000e+00 
3.1999999e-01 3.9999999e-02 0.0000000e+00 
2.8000000e-01 1.6000000e-01 0.0000000e+00 
1.2000000e-01 3.0000001e-01 0.0000000e+00 
3.0000001e-01 1.2000000e-01 0.0000000e+00 
2.2000000e-01 2.3999999e-01 0.0000000e+00 
5.9999999e-02 3.1999999e-01 0.0000000e+00 
2.3999999e-01 2.2000000e-01 0.0000000e+00 
3.1999999e-01 5.9999999e-02 0.0000000e+00 
2.0000000e-01 2.5999999e-01 0.0000000e+00 
2.5999999e-01 2.0000000e-01 0.0000000e+00 
[...]
POINT_DATA 2601
FIELD FieldData 1
TEMPERATURE 1 2601  float
-0.0000000e+00
0.0000000e+00
-6.2790520e-02
-6.2859029e-02
-1.2533323e-01
0.0000000e+00
-1.2547213e-01
-6.2596947e-02
-1.2495070e-01
-1.8738131e-01
0.0000000e+00
-1.8759306e-01
-6.2024128e-02
-1.2380899e-01
-1.8681721e-01
-2.4868989e-01
0.0000000e+00
-2.4897750e-01
-6.1161894e-02
-1.8511394e-01
-2.4795412e-01
-1.2208956e-01
-1.8254693e-01
-2.4569984e-01
-3.0901700e-01
0.0000000e+00
-3.0938396e-01
-6.0029179e-02
-1.1983024e-01
-3.0812174e-01
-2.4229921e-01
-3.0533001e-01
-1.7917275e-01
-3.6812454e-01
0.0000000e+00
-3.6857474e-01
-5.8642980e-02
-3.6708397e-01
-1.1706495e-01
-3.0111390e-01
-2.3782736e-01
-3.6377117e-01
-1.7504212e-01
0.0000000e+00
-4.2577928e-01
-2.9556677e-01
-5.7018362e-02
-4.2631677e-01
-3.5876167e-01
-2.3235156e-01
-1.1382375e-01
-4.2460924e-01
-4.2079440e-01
-1.7019995e-01
-3.5216662e-01
-2.8877217e-01
-4.8175368e-01
0.0000000e+00
-4.8238263e-01
-2.2593138e-01
-5.5168711e-02
-4.1501731e-01
-4.8047137e-01
-1.1013335e-01
-3.4408551e-01
-4.7617593e-01
-1.6468611e-01
-2.8080401e-01
-4.0740642e-01
-4.6966043e-01
-2.1861961e-01
0.0000000e+00
-5.3582680e-01
-5.3655124e-01
-5.3106036e-02
-1.0601767e-01
-5.3445041e-01
-3.3460623e-01
-3.9807674e-01
-2.7172774e-01
-4.6107024e-01
-5.2969795e-01
-1.5853633e-01
-2.1046355e-01
-5.2247649e-01
-3.8712960e-01
-3.2380649e-01
-4.5053515e-01
0.0000000e+00
-5.8778524e-01
-5.8860904e-01
-5.0841287e-02
-5.8633357e-01
-1.0149856e-01
-2.6160190e-01
-5.1294750e-01
-5.8114952e-01
-1.5178314e-01
-3.7465459e-01
-4.3816954e-01
-5.7325721e-01
-2.0150624e-01
-5.0125504e-01
-3.1175566e-01
-6.3742399e-01
0.0000000e+00
-6.3835031e-01
-4.8384707e-02
-6.3591576e-01
-9.6596420e-02
-2.5047973e-01
-5.6283361e-01
-4.2407417e-01
-6.3032717e-01
-1.4445698e-01
-4.8752588e-01
-3.6073139e-01
-5.5003631e-01
-2.9851678e-01
-1.9178787e-01
-6.2180161e-01
-6.8454713e-01
0.0000000e+00
-6.8557858e-01
-4.7187123e-01
-4.0833852e-01
-4.5746148e-02
-6.1053079e-01
-2.3841086e-01
-9.1330856e-02
-6.8300068e-01
-3.4543234e-01
-5.3500348e-01
-6.7703569e-01
-1.3658707e-01
-5.9668499e-01
-2.8414857e-01
-1.8134706e-01
-6.6791654e-01
-4.5438969e-01
-5.1785618e-01
-3.9104363e-01
-2.2544301e-01
-6.5584868e-01
0.0000000e+00
-7.2896862e-01
-3.2882479e-01
-5.8041292e-01
-4.2935338e-02
-7.3010677e-01
-8.5721269e-02
-7.2740132e-01
-1.2820232e-01
-7.2108895e-01
-6.4101398e-01
-2.6870745e-01
-4.3517020e-01
-4.9870121e-01
-5.6184447e-01
-1.7022200e-01
-7.1141750e-01
-3.7226480e-01
-6.2357086e-01
-3.1097341e-01
-2.1162340e-01
-6.9860494e-01
-7.7051324e-01
0.0000000e+00
-3.9962146e-02
-7.7175838e-01
-7.6894081e-01
-7.9787321e-02
-4.7763446e-01
-4.1429541e-01
-5.4109347e-01
-7.6231062e-01
-6.8284380e-01
-2.5224930e-01
-1.1933203e-01
-6.0365677e-01
-3.5207447e-01
-1.5845148e-01
-7.5212926e-01
-2.9194236e-01
-6.6430104e-01
-5.1826185e-01
-1.9700000e-01
-4.5474494e-01
-7.3862618e-01
-3.9184469e-01
-8.0901700e-01
-5.8139151e-01
0.0000000e+00
-8.1036812e-01
-3.6836781e-02
-7.3549360e-02
-8.0745327e-01
-2.3483109e-01
-7.2200340e-01
-3.3054468e-01
-6.4312035e-01
-1.1000658e-01
-8.0053484e-01
-1.4607570e-01
-7.8988677e-01
-4.9344361e-01
-5.5688137e-01
-4.3011820e-01
-2.7179727e-01
-7.0243490e-01
-1.8162267e-01
-6.1942577e-01
-3.6789751e-01
-7.7574873e-01
0.0000000e+00
-8.4432793e-01
-3.3569947e-02
-8.4578228e-01
-6.7028731e-02
-3.0774945e-01
-8.4278423e-01
-6.8006921e-01
-2.1651208e-01
-7.5833082e-01
-4.6672946e-01
-1.0025784e-01
-5.3022397e-01
-8.3560717e-01
-4.0384051e-01
-5.9332657e-01
-1.3313690e-01
-8.2453609e-01
-2.5060669e-01
-7.3781252e-01
-6.5503317e-01
-3.4253609e-01
-1.6554388e-01
-8.0981964e-01
-5.0151336e-01
-2.8376654e-01
-7.1434575e-01
0.0000000e+00
-8.7630665e-01
-3.0172953e-02
-5.6492174e-01
-4.3821141e-01
-8.7785989e-01
-1.9735482e-01
-7.9167438e-01
-6.0248010e-02
-8.7479162e-01
-6.2743652e-01
-3.7600204e-01
-9.0119556e-02
-8.6738509e-01
-1.1967991e-01
-8.5593498e-01
-7.7028406e-01
-2.2844319e-01
-3.1584764e-01
-6.8805808e-01
-5.3430682e-01
-4.7084630e-01
-1.4881934e-01
-8.4069735e-01
-4.0798756e-01
-5.9737772e-01
-2.5867873e-01
-7.4580187e-01
-9.0482706e-01
0.0000000e+00
-9.0647292e-01
-2.6657810e-02
-3.4670001e-01
-1.7742580e-01
-6.5905774e-01
-8.2189393e-01
-9.0334636e-01
-5.3231165e-02
-8.9573902e-01
-7.9627581e-02
-2.8792563e-01
-7.1835417e-01
-2.0538405e-01
-5.0158012e-01
-7.9971075e-01
-1.0575230e-01
-8.8395393e-01
-4.3832725e-01
-5.6495005e-01
-3.7616554e-01
-6.2743944e-01
-8.6825305e-01
-1.3150831e-01
-7.7430052e-01
-2.3257431e-01
-6.8804556e-01
-3.1603992e-01
-8.4886181e-01
-1.5679586e-01
-9.2977649e-01
0.0000000e+00
-9.3150705e-01
-2.3037244e-02
-4.6003610e-02
-9.2833287e-01
-5.3025222e-01
-4.6685305e-01
-5.9329224e-01
-4.0407661e-01
-9.2055297e-01
-2.5887015e-01
-6.8819933e-02
-7.4578607e-01
-8.2596666e-01
-1.8151164e-01
-3.4286609e-01
-9.0847701e-01
-6.5496504e-01
-9.1404662e-02
-1.1367378e-01
-8.9237171e-01
-7.9971749e-01
-2.0554721e-01
-2.8413558e-01
-7.1426636e-01
-4.9339196e-01
-5.5670398e-01
-4.3025202e-01
-1.3554037e-01
-8.7246442e-01
-3.6823070e-01
-9.5105654e-01
0.0000000e+00
-6.1919063e-01
-9.5286208e-01
-1.9324701e-02
-9.4964999e-01
-3.8592204e-02
-7.7023113e-01
-2.2878702e-01
-9.4172508e-01
-5.7736840e-02
-1.5691358e-01
-8.4894043e-01
-6.7982298e-01
-3.0822039e-01
-7.6690480e-02
-9.2940259e-01
-4.5451796e-01
-5.1779342e-01
-2.5110576e-01
-7.3759818e-01
-8.2194442e-01
-1.7769717e-01
-5.8080393e-01
-3.9194369e-01
-9.5382474e-02
-9.1295254e-01
-3.3095306e-01
-6.4252555e-01
-8.9260310e-01
-1.1373919e-01
-9.6858317e-01
0.0000000e+00
-9.7045255e-01
-1.5534308e-02
-1.9778745e-01
-7.9158342e-01
-9.6721113e-01
-3.1025173e-02
-2.7236441e-01
-7.0189196e-01
-1.3168293e-01
-8.6853701e-01
-9.5916837e-01
-4.7668400e-01
-4.6420544e-02
-4.1376945e-01
-5.3986949e-01
-9.4664383e-01
-6.1665952e-02
-6.0242075e-01
-3.5211766e-01
-7.5793409e-01
-2.1707118e-01
-1.4913024e-01
-8.4089148e-01
-7.6704502e-02
-9.2990988e-01
-6.6319108e-01
-2.9241040e-01
-9.0919483e-01
-9.1476418e-02
-1.6598998e-01
-4.3357998e-01
-4.9667445e-01
-8.0976069e-01
-2.3542351e-01
-7.2105300e-01
0.0000000e+00
-9.8228723e-01
-1.1680815e-02
-9.8420799e-01
-5.5949348e-01
-3.7142730e-01
-9.8094487e-01
-2.3331968e-02
-8.8467801e-01
-1.0591794e-01
-9.7281104e-01
-3.4915134e-02
-3.1106541e-01
-6.2158400e-01
-4.6389695e-02
-9.6012914e-01
-1.8216117e-01
-7.7519840e-01
-1.1995931e-01
-8.5648900e-01
-2.5269991e-01
-6.8098575e-01
-9.4317329e-01
-5.7712890e-02
-4.5219436e-01
-3.8976514e-01
-5.1528305e-01
-9.2217141e-01
-5.7745808e-01
-3.2823154e-01
-6.8839535e-02
-7.3724699e-01
-1.9753720e-01
-8.2470524e-01
-1.3352153e-01
-9.9211472e-01
0.0000000e+00
-7.7795084e-03
-2.6873845e-01
-6.3776612e-01
-9.9407315e-01
-8.9730054e-01
-7.9721078e-02
-1.5543112e-02
-9.9079531e-01
-2.3266248e-02
-9.8259681e-01
-1.4651389e-01
-7.8935134e-01
-6.9596171e-01
-2.1200371e-01
-9.6980238e-01
-4.0658325e-01
-3.0922275e-02
-4.6947563e-01
-8.6868453e-01
-9.0303354e-02
-5.3212589e-01
-3.4467572e-01
-9.5268732e-01
-3.8482845e-02
-2.8416616e-01
-5.9329075e-01
-1.5883219e-01
-7.5036722e-01
-4.5918081e-02
-1.0052164e-01
-8.3639240e-01
-9.3147933e-01
-6.5185654e-01
-2.2547957e-01
0.0000000e+00
-9.9802673e-01
-1.0000085e+00
-3.8461229e-03
-5.3196337e-02
-9.0635359e-01
-4.2202944e-01
-9.9672234e-01
-7.6900194e-03
-3.5980642e-01
-4.8494211e-01
-1.1029008e-01
-8.0043501e-01
-9.8848528e-01
-7.0761597e-01
-1.7040774e-01
-1.1520846e-02
-2.9850987e-01
-5.4693514e-01
-1.5325896e-02
-9.7562337e-01
-8.7743139e-01
-6.0283106e-02
-6.0675609e-01
-2.3893468e-01
-9.5841229e-01
-1.9091252e-02
-7.6074708e-01
-1.1947906e-01
-6.6370940e-01
-1.8186252e-01
-6.7137145e-02
-8.4477961e-01
-9.3707937e-01
-2.2802494e-02
0.0000000e+00
0.0000000e+00
0.0000000e+00
0.0000000e+00
-2.6445722e-02
0.0000000e+00
-1.0000000e+00
-9.1179854e-01
-5.5984473e-01
-2.5167596e-01
1.0325966e-04
-1.0019902e+00
-7.1720415e-01
-1.2788054e-01
-9.9870187e-01
1.9518526e-04
-7.3698483e-02
-8.0841410e-01
2.7301768e-04
-9.9045235e-01
-6.1789030e-01
-1.9292535e-01
-8.8268900e-01
-3.0009307e-02
3.3572165e-04
-9.7756803e-01
0.0000000e+00
0.0000000e+00
-7.9851121e-02
-9.6032447e-01
3.8318240e-04
0.0000000e+00
-7.6829511e-01
-1.3744430e-01
-6.7313129e-01
0.0000000e+00
0.0000000e+00
-8.4981644e-01
-3.3486947e-02
-9.3894857e-01
4.1518494e-04
0.0000000e+00
0.0000000e+00
-8.5344166e-02
-7.2436887e-01
4.2965679e-04
-9.1361290e-01
-8.1320274e-01
-3.6879655e-02
-9.9802673e-01
0.0000000e+00
-1.0000104e+00
4.0523331e-03
8.0798911e-03
-6.2712449e-01
-1.4683694e-01
-9.9672598e-01
0.0000000e+00
1.2066437e-02
-9.8849016e-01
0.0000000e+00
0.0000000e+00
4.1853881e-04
-8.8443357e-01
0.0000000e+00
-9.7562873e-01
1.5997432e-02
-4.0169381e-02
-7.7285022e-01
0.0000000e+00
0.0000000e+00
-6.7991722e-01
-9.2341252e-02
1.9859258e-02
-9.5841694e-01
-8.5146910e-01
3.5555148e-04
0.0000000e+00
0.0000000e+00
-9.3708110e-01
2.3638416e-02
-7.2891569e-01
-4.3083165e-02
0.0000000e+00
0.0000000e+00
0.0000000e+00
0.0000000e+00
2.7320644e-02
-9.1179317e-01
1.5364775e-04
-8.1471962e-01
0.0000000e+00
0.0000000e+00
-9.9211472e-01
0.0000000e+00
7.9847323e-03
-9.9407721e-01
0.0000000e+00
-9.9080288e-01
1.5931327e-02
-9.8260713e-01
2.3810137e-02
0.0000000e+00
0.0000000e+00
-8.8266766e-01
3.0890198e-02
-9.6981424e-01
-4.7415230e-02
-6.8425786e-01
3.1593211e-02
-7.7410644e-01
-5.0319935e-04
-9.5269877e-01
3.9253600e-02
0.0000000e+00
0.0000000e+00
-8.4975928e-01
3.4330856e-02
0.0000000e+00
0.0000000e+00
-9.3148708e-01
0.0000000e+00
0.0000000e+00
4.6764754e-02
-2.8835898e-03
-7.2941232e-01
0.0000000e+00
0.0000000e+00
0.0000000e+00
0.0000000e+00
-8.1306416e-01
3.7637848e-02
-9.0635169e-01
5.4100305e-02
0.0000000e+00
-9.8228723e-01
-9.8421437e-01
1.1884232e-02
0.0000000e+00
0.0000000e+00
2.3716997e-02
-9.8095697e-01
-9.7282791e-01
-8.7740791e-01
3.5455227e-02
6.1235141e-02
-6.8457687e-01
-4.5936382e-03
4.0889479e-02
-7.7252078e-01
4.7057509e-02
0.0000000e+00
-9.6014929e-01
0.0000000e+00
0.0000000e+00
0.0000000e+00
0.0000000e+00
0.0000000e+00
0.0000000e+00
5.8483355e-02
-9.4319475e-01
-8.4470975e-01
6.8150461e-02
0.0000000e+00
0.0000000e+00
4.4641111e-02
-7.2812837e-01
-9.2219132e-01
6.9692545e-02
0.0000000e+00
0.0000000e+00
-8.0824268e-01
7.4850745e-02
0.0000000e+00
0.0000000e+00
8.0644615e-02
-8.9731407e-01
0.0000000e+00
-9.6858317e-01
0.0000000e+00
0.0000000e+00
-9.7046167e-01
1.5734950e-02
3.1405117e-02
0.0000000e+00
0.0000000e+00
4.5962133e-02
-6.8314391e-01
-9.6722841e-01
-8.6868393e-01
9.1298975e-02
-7.6790160e-01
0.0000000e+00
0.0000000e+00
-9.5919287e-01
4.6953969e-02
8.1411682e-02
0.0000000e+00
0.0000000e+00
6.2326539e-02
-9.4667423e-01
1.0161585e-01
0.0000000e+00
-8.3636290e-01
0.0000000e+00
7.7468589e-02
-9.2994457e-01
0.0000000e+00
0.0000000e+00
-7.2349226e-01
8.8089615e-02
9.2325687e-02
-9.0923202e-01
0.0000000e+00
0.0000000e+00
0.0000000e+00
-8.0034947e-01
0.0000000e+00
1.1155926e-01
0.0000000e+00
1.0684205e-01
-8.8471591e-01
0.0000000e+00
0.0000000e+00
-6.7844540e-01
9.2368737e-02
0.0000000e+00
-9.5105654e-01
0.0000000e+00
0.0000000e+00
1.9521508e-02
-9.5287412e-01
0.0000000e+00
0.0000000e+00
-9.4967312e-01
3.8964942e-02
1.2095898e-01
1.2109204e-01
-7.6053739e-01
-8.5652643e-01
-9.4175833e-01
5.8260303e-02
0.0000000e+00
0.0000000e+00
7.7339046e-02
-9.2944485e-01
-8.2474548e-01
1.3461210e-01
0.0000000e+00
0.0000000e+00
0.0000000e+00
9.6133150e-02
0.0000000e+00
-9.1300279e-01
1.3015307e-01
-7.1669060e-01
0.0000000e+00
0.0000000e+00
0.0000000e+00
0.0000000e+00
-8.9266074e-01
1.1457396e-01
0.0000000e+00
0.0000000e+00
-7.8940880e-01
1.4772372e-01
1.3259059e-01
0.0000000e+00
0.0000000e+00
-8.6860245e-01
1.3737081e-01
-6.7181814e-01
0.0000000e+00
0.0000000e+00
-9.2977649e-01
0.0000000e+00
2.3229156e-02
-7.5053644e-01
1.6018444e-01
-9.3152231e-01
-8.4096754e-01
1.5010749e-01
0.0000000e+00
0.0000000e+00
4.6367016e-02
-9.2836249e-01
0.0000000e+00
0.0000000e+00
0.0000000e+00
-9.2059594e-01
6.9330156e-02
0.0000000e+00
0.0000000e+00
-9.0853250e-01
9.2036553e-02
0.0000000e+00
0.0000000e+00
-8.0985427e-01
1.6704045e-01
0.0000000e+00
0.0000000e+00
-7.0818371e-01
1.7178673e-01
0.0000000e+00
0.0000000e+00
1.1440457e-01
-8.9243913e-01
1.3635175e-01
-8.7254399e-01
0.0000000e+00
-7.7532619e-01
0.0000000e+00
1.8328933e-01
0.0000000e+00
0.0000000e+00
1.8208513e-01
-6.6297770e-01
-8.4903401e-01
1.5779299e-01
0.0000000e+00
0.0000000e+00
0.0000000e+00
0.0000000e+00
0.0000000e+00
0.0000000e+00
-7.3742288e-01
1.9872594e-01
0.0000000e+00
-9.0482706e-01
2.6843825e-02
0.0000000e+00
0.0000000e+00
-8.2205641e-01
1.7863812e-01
-9.0649176e-01
5.3583253e-02
-9.0338296e-01
8.0121569e-02
-8.9579254e-01
0.0000000e+00
0.0000000e+00
-6.1638558e-01
1.9173130e-01
1.0636342e-01
0.0000000e+00
0.0000000e+00
-8.8402361e-01
1.9878814e-01
-7.9172254e-01
-6.9616693e-01
2.1317603e-01
1.3221388e-01
-8.6833870e-01
0.0000000e+00
0.0000000e+00
0.0000000e+00
0.0000000e+00
0.0000000e+00
-8.4896421e-01
1.5757719e-01
2.1813007e-01
-7.5811446e-01
0.0000000e+00
0.0000000e+00
0.0000000e+00
0.0000000e+00
2.2645029e-01
-6.5152895e-01
0.0000000e+00
0.0000000e+00
-8.2608831e-01
1.8235512e-01
0.0000000e+00
0.0000000e+00
2.3653035e-01
-7.2129434e-01
2.0644468e-01
-7.9986352e-01
0.0000000e+00
-8.7630665e-01
0.0000000e+00
0.0000000e+00
-8.7788248e-01
3.0352185e-02
6.0587052e-02
-8.7483567e-01
2.3855387e-01
-6.0556293e-01
0.0000000e+00
0.0000000e+00
-8.6744970e-01
9.0594761e-02
2.2973499e-01
2.5383464e-01
0.0000000e+00
0.0000000e+00
1.2026688e-01
-8.5601962e-01
-6.8132770e-01
-7.7041030e-01
0.0000000e+00
0.0000000e+00
0.0000000e+00
0.0000000e+00
1.4949553e-01
-8.4080195e-01
0.0000000e+00
0.0000000e+00
2.5210360e-01
-7.3782289e-01
0.0000000e+00
1.7817225e-01
-8.2201964e-01
0.0000000e+00
0.0000000e+00
0.0000000e+00
2.6987094e-01
-6.3829821e-01
0.0000000e+00
0.0000000e+00
-7.9986042e-01
2.0618647e-01
2.7341262e-01
0.0000000e+00
0.0000000e+00
-7.0217669e-01
0.0000000e+00
-7.7447963e-01
2.3342365e-01
0.0000000e+00
0.0000000e+00
0.0000000e+00
0.0000000e+00
0.0000000e+00
-8.4432793e-01
2.8452006e-01
3.3741634e-02
-5.9262937e-01
-8.4580880e-01
6.7353271e-02
0.0000000e+00
0.0000000e+00
-8.4283602e-01
1.0071217e-01
0.0000000e+00
0.0000000e+00
-8.3568341e-01
2.9350775e-01
-6.6353440e-01
0.0000000e+00
0.0000000e+00
-7.4600375e-01
2.5976267e-01
1.3369709e-01
-8.2463622e-01
1.6618758e-01
-8.0994374e-01
0.0000000e+00
0.0000000e+00
2.9830334e-01
-5.4570878e-01
2.8507274e-01
0.0000000e+00
0.0000000e+00
-7.1453607e-01
-7.9182369e-01
1.9806291e-01
3.1221849e-01
-6.2193698e-01
0.0000000e+00
0.0000000e+00
0.0000000e+00
0.0000000e+00
2.2920094e-01
0.0000000e+00
0.0000000e+00
-7.7046162e-01
-6.8016320e-01
3.0921033e-01
0.0000000e+00
0.0000000e+00
0.0000000e+00
0.0000000e+00
2.5947642e-01
3.2939446e-01
-5.7736439e-01
-7.4601328e-01
0.0000000e+00
0.0000000e+00
0.0000000e+00
-8.0901700e-01
0.0000000e+00
0.0000000e+00
3.7000299e-02
-8.1039870e-01
7.3858209e-02
-8.0751306e-01
3.3201432e-01
-6.4296067e-01
1.1043838e-01
-8.0062300e-01
2.8875893e-01
-7.1860868e-01
-7.9000270e-01
0.0000000e+00
0.0000000e+00
1.4660709e-01
-5.3149319e-01
3.4504929e-01
-7.7589256e-01
1.8223161e-01
0.0000000e+00
0.0000000e+00
0.0000000e+00
0.0000000e+00
0.0000000e+00
3.1691051e-01
-6.8835729e-01
3.5330510e-01
0.0000000e+00
0.0000000e+00
-6.0300845e-01
0.0000000e+00
-7.5850374e-01
0.0000000e+00
2.1717948e-01
0.0000000e+00
0.0000000e+00
2.5131741e-01
-7.3801750e-01
3.4378260e-01
-6.5535450e-01
0.0000000e+00
0.0000000e+00
0.0000000e+00
0.0000000e+00
3.7284249e-01
-5.6037766e-01
0.0000000e+00
0.0000000e+00
2.8451011e-01
-7.1458811e-01
-7.7051324e-01
0.0000000e+00
-7.7179307e-01
4.0116981e-02
8.0079518e-02
-7.6900864e-01
0.0000000e+00
0.0000000e+00
3.6921361e-01
-6.1968982e-01
0.0000000e+00
0.0000000e+00
1.1974001e-01
-7.6241064e-01
0.0000000e+00
0.0000000e+00
-6.8834662e-01
3.1661859e-01
-7.5226092e-01
1.5895258e-01
0.0000000e+00
0.0000000e+00
0.0000000e+00
0.0000000e+00
3.9030477e-01
-5.1535380e-01
-7.3878950e-01
1.9757263e-01
0.0000000e+00
0.0000000e+00
3.4749842e-01
-6.5940601e-01
0.0000000e+00
0.0000000e+00
-5.8145350e-01
3.9302126e-01
-7.2219950e-01
2.3545630e-01
0.0000000e+00
0.0000000e+00
-7.0266634e-01
2.7245966e-01
-4.6919915e-01
4.0669230e-01
3.7699759e-01
-6.2786728e-01
0.0000000e+00
0.0000000e+00
-5.4076856e-01
4.1500825e-01
0.0000000e+00
0.0000000e+00
0.0000000e+00
-6.8034083e-01
0.0000000e+00
0.0000000e+00
3.0843776e-01
0.0000000e+00
0.0000000e+00
4.0495411e-01
-5.9382635e-01
0.0000000e+00
-7.2896862e-01
-7.3014545e-01
4.3081068e-02
0.0000000e+00
0.0000000e+00
-7.2747701e-01
8.5996069e-02
-6.5535277e-01
3.4324357e-01
1.2858550e-01
-7.2120070e-01
0.0000000e+00
0.0000000e+00
4.3492964e-01
-4.9777153e-01
0.0000000e+00
0.0000000e+00
1.7069174e-01
0.0000000e+00
0.0000000e+00
-7.1156460e-01
-5.5738509e-01
-6.9878727e-01
2.1215874e-01
4.3119565e-01
3.7672648e-01
-6.2781602e-01
0.0000000e+00
0.0000000e+00
-6.8306220e-01
0.0000000e+00
0.0000000e+00
2.5283161e-01
0.0000000e+00
0.0000000e+00
4.5267177e-01
-4.5267296e-01
0.0000000e+00
0.0000000e+00
4.0873113e-01
-5.9783363e-01
0.0000000e+00
0.0000000e+00
-6.6455764e-01
2.9255611e-01
4.5553488e-01
-5.1865608e-01
0.0000000e+00
0.0000000e+00
0.0000000e+00
0.0000000e+00
-6.4341921e-01
3.3117804e-01
4.3909633e-01
-5.6550515e-01
0.0000000e+00
-6.8454713e-01
4.5882434e-02
-6.8562108e-01
0.0000000e+00
0.0000000e+00
4.6920139e-01
-4.0669304e-01
9.1587648e-02
-6.8308389e-01
-6.1977351e-01
4.7779205e-01
-4.7779089e-01
0.0000000e+00
0.0000000e+00
3.6854246e-01
-6.7715859e-01
1.3694471e-01
0.0000000e+00
-6.6807830e-01
1.8178469e-01
0.0000000e+00
0.0000000e+00
-5.3093272e-01
0.0000000e+00
0.0000000e+00
4.6765408e-01
0.0000000e+00
0.0000000e+00
4.0449271e-01
-6.5604889e-01
2.2594050e-01
-5.9373271e-01
0.0000000e+00
0.0000000e+00
2.6924664e-01
-6.4125323e-01
0.0000000e+00
0.0000000e+00
4.9777341e-01
-4.3492931e-01
0.0000000e+00
0.0000000e+00
0.0000000e+00
-5.6539953e-01
4.3886989e-01
0.0000000e+00
-4.9423215e-01
4.9423319e-01
3.1153893e-01
-6.2385082e-01
0.0000000e+00
-6.0398060e-01
0.0000000e+00
3.5265419e-01
4.7151214e-01
0.0000000e+00
-5.3487295e-01
0.0000000e+00
5.1535803e-01
-3.9030501e-01
0.0000000e+00
0.0000000e+00
0.0000000e+00
0.0000000e+00
5.1865745e-01
0.0000000e+00
-6.3742399e-01
-4.5553395e-01
-6.3839632e-01
4.8511270e-02
-6.3600588e-01
0.0000000e+00
3.9242965e-01
0.0000000e+00
9.6834697e-02
-5.8176428e-01
-6.3046020e-01
1.4478847e-01
0.0000000e+00
0.0000000e+00
1.9219285e-01
-6.2197661e-01
0.0000000e+00
0.0000000e+00
-5.0225437e-01
5.0225532e-01
-5.5731052e-01
4.3070254e-01
-6.1074722e-01
2.3887017e-01
5.3150392e-01
-3.4504783e-01
5.4077083e-01
-4.1500765e-01
0.0000000e+00
0.0000000e+00
0.0000000e+00
0.0000000e+00
2.8464478e-01
-5.9694296e-01
5.3093368e-01
-5.3071934e-01
-4.6765316e-01
4.6730980e-01
0.0000000e+00
-5.8071363e-01
3.2934299e-01
0.0000000e+00
0.0000000e+00
0.0000000e+00
0.0000000e+00
0.0000000e+00
0.0000000e+00
3.7279278e-01
5.6038183e-01
-3.7284195e-01
-5.6219018e-01
5.4572564e-01
0.0000000e+00
0.0000000e+00
-2.9830310e-01
-5.0208712e-01
5.0208801e-01
-4.3119484e-01
5.5738616e-01
0.0000000e+00
0.0000000e+00
0.0000000e+00
-5.8778524e-01
0.0000000e+00
0.0000000e+00
-5.8865798e-01
5.0957870e-02
-5.4148793e-01
4.1482374e-01
1.0171790e-01
-5.8642954e-01
-5.8129120e-01
1.5208797e-01
-4.7151124e-01
5.3487384e-01
2.0187812e-01
-5.7344341e-01
0.0000000e+00
0.0000000e+00
5.7737315e-01
-3.2939324e-01
4.5526686e-01
-5.1871049e-01
0.0000000e+00
0.0000000e+00
-3.9302060e-01
0.0000000e+00
0.0000000e+00
-5.6306368e-01
2.5090066e-01
5.8145481e-01
0.0000000e+00
0.0000000e+00
-5.5031002e-01
2.9897031e-01
0.0000000e+00
0.0000000e+00
-4.3909550e-01
5.6550586e-01
0.0000000e+00
0.0000000e+00
-4.9395353e-01
4.9395442e-01
-5.3532147e-01
3.4590417e-01
0.0000000e+00
0.0000000e+00
-2.8452063e-01
5.9264141e-01
-3.5330459e-01
6.0301024e-01
3.9152184e-01
-5.1821995e-01
5.3072023e-01
-4.6730894e-01
0.0000000e+00
0.0000000e+00
0.0000000e+00
0.0000000e+00
5.9382683e-01
-4.0495336e-01
4.3564543e-01
0.0000000e+00
-5.3582680e-01
-4.9911332e-01
0.0000000e+00
5.3212408e-02
-5.3660250e-01
0.0000000e+00
0.0000000e+00
-5.3455079e-01
1.0621767e-01
0.0000000e+00
0.0000000e+00
0.0000000e+00
1.5881401e-01
5.6540030e-01