# vtk DataFile Version 4.0
vtk output
ASCII
DATASET UNSTRUCTURED_GRID
POINTS 2601 float
0.0000000e+00 0.0000000e+00 0.0000000e+00 
0.0000000e+00 2.0000000e-02 0.0000000e+00 
2.0000000e-02 0.0000000e+00 0.0000000e+00 
2.0000000e-02 2.0000000e-02 0.0000000e+00 
3.9999999e-02 0.0000000e+00 0.0000000e+00 
0.0000000e+00 3.9999999e-02 0.0000000e+00 
3.9999999e-02 2.0000000e-02 0.0000000e+00 
2.0000000e-02 3.9999999e-02 0.0000000e+00 
3.9999999e-02 3.9999999e-02 0.0000000e+00 
5.9999999e-02 0.0000000e+00 0.0000000e+00 
0.0000000e+00 5.9999999e-02 0.0000000e+00 
5.9999999e-02 2.0000000e-02 0.0000000e+00 
2.0000000e-02 5.9999999e-02 0.0000000e+00 
3.9999999e-02 5.9999999e-02 0.0000000e+00 
5.9999999e-02 3.9999999e-02 0.0000000e+00 
7.9999998e-02 0.0000000e+00 0.0000000e+00 
0.0000000e+00 7.9999998e-02 0.0000000e+00 
7.9999998e-02 2.0000000e-02 0.0000000e+00 
2.0000000e-02 7.9999998e-02 0.0000000e+00 
5.9999999e-02 5.9999999e-02 0.0000000e+00 
7.9999998e-02 3.9999999e-02 0.0000000e+00 
3.9999999e-02 7.9999998e-02 0.0000000e+00 
5.9999999e-02 7.9999998e-02 0.0000000e+00 
7.9999998e-02 5.9999999e-02 0.0000000e+00 
1.0000000e-01 0.0000000e+00 0.0000000e+00 
0.0000000e+00 1.0000000e-01 0.0000000e+00 
1.0000000e-01 2.0000000e-02 0.0000000e+00 
2.0000000e-02 1.0000000e-01 0.0000000e+00 
3.9999999e-02 1.0000000e-01 0.0000000e+00 
1.0000000e-01 3.9999999e-02 0.0000000e+00 
7.9999998e-02 7.9999998e-02 0.0000000e+00 
1.0000000e-01 5.9999999e-02 0.0000000e+00 
5.9999999e-02 1.0000000e-01 0.0000000e+00 
1.2000000e-01 0.0000000e+00 0.0000000e+00 
0.0000000e+00 1.2000000e-01 0.0000000e+00 
1.2000000e-01 2.0000000e-02 0.0000000e+00 
2.0000000e-02 1.2000000e-01 0.0000000e+00 
1.2000000e-01 3.9999999e-02 0.0000000e+00 
3.9999999e-02 1.2000000e-01 0.0000000e+00 
1.0000000e-01 7.9999998e-02 0.0000000e+00 
7.9999998e-02 1.0000000e-01 0.0000000e+00 
1.2000000e-01 5.9999999e-02 0.0000000e+00 
5.9999999e-02 1.2000000e-01 0.0000000e+00 
0.0000000e+00 1.4000000e-01 0.0000000e+00 
1.4000000e-01 0.0000000e+00 0.0000000e+00 
1.0000000e-01 1.0000000e-01 0.0000000e+00 
2.0000000e-02 1.4000000e-01 0.0000000e+00 
1.4000000e-01 2.0000000e-02 0.0000000e+00 
1.2000000e-01 7.9999998e-02 0.0000000e+00 
7.9999998e-02 1.2000000e-01 0.0000000e+00 
3.9999999e-02 1.4000000e-01 0.0000000e+00 
1.4000000e-01 3.9999999e-02 0.0000000e+00 
1.4000000e-01 5.9999999e-02 0.0000000e+00 
5.9999999e-02 1.4000000e-01 0.0000000e+00 
1.2000000e-01 1.0000000e-01 0.0000000e+00 
1.0000000e-01 1.2000000e-01 0.0000000e+00 
1.6000000e-01 0.0000000e+00 0.0000000e+00 
0.0000000e+00 1.6000000e-01 0.0000000e+00 
1.6000000e-01 2.0000000e-02 0.0000000e+00 
7.9999998e-02 1.4000000e-01 0.0000000e+00 
2.0000000e-02 1.6000000e-01 0.0000000e+00 
1.4000000e-01 7.9999998e-02 0.0000000e+00 
1.6000000e-01 3.9999999e-02 0.0000000e+00 
3.9999999e-02 1.6000000e-01 0.0000000e+00 
1.2000000e-01 1.2000000e-01 0.0000000e+00 
1.6000000e-01 5.9999999e-02 0.0000000e+00 
5.9999999e-02 1.6000000e-01 0.0000000e+00 
1.0000000e-01 1.4000000e-01 0.0000000e+00 
1.4000000e-01 1.0000000e-01 0.0000000e+00 
1.6000000e-01 7.9999998e-02 0.0000000e+00 
7.9999998e-02 1.6000000e-01 0.0000000e+00 
0.0000000e+00 1.8000001e-01 0.0000000e+00 
1.8000001e-01 0.0000000e+00 0.0000000e+00 
1.8000001e-01 2.0000000e-02 0.0000000e+00 
2.0000000e-02 1.8000001e-01 0.0000000e+00 
3.9999999e-02 1.8000001e-01 0.0000000e+00 
1.8000001e-01 3.9999999e-02 0.0000000e+00 
1.2000000e-01 1.4000000e-01 0.0000000e+00 
1.4000000e-01 1.2000000e-01 0.0000000e+00 
1.0000000e-01 1.6000000e-01 0.0000000e+00 
1.6000000e-01 1.0000000e-01 0.0000000e+00 
1.8000001e-01 5.9999999e-02 0.0000000e+00 
5.9999999e-02 1.8000001e-01 0.0000000e+00 
7.9999998e-02 1.8000001e-01 0.0000000e+00 
1.8000001e-01 7.9999998e-02 0.0000000e+00 
1.4000000e-01 1.4000000e-01 0.0000000e+00 
1.2000000e-01 1.6000000e-01 0.0000000e+00 
1.6000000e-01 1.2000000e-01 0.0000000e+00 
0.0000000e+00 2.0000000e-01 0.0000000e+00 
2.0000000e-01 0.0000000e+00 0.0000000e+00 
2.0000000e-01 2.0000000e-02 0.0000000e+00 
2.0000000e-02 2.0000000e-01 0.0000000e+00 
2.0000000e-01 3.9999999e-02 0.0000000e+00 
3.9999999e-02 2.0000000e-01 0.0000000e+00 
1.0000000e-01 1.8000001e-01 0.0000000e+00 
1.8000001e-01 1.0000000e-01 0.0000000e+00 
2.0000000e-01 5.9999999e-02 0.0000000e+00 
5.9999999e-02 2.0000000e-01 0.0000000e+00 
1.4000000e-01 1.6000000e-01 0.0000000e+00 
1.6000000e-01 1.4000000e-01 0.0000000e+00 
2.0000000e-01 7.9999998e-02 0.0000000e+00 
7.9999998e-02 2.0000000e-01 0.0000000e+00 
1.8000001e-01 1.2000000e-01 0.0000000e+00 
1.2000000e-01 1.8000001e-01 0.0000000e+00 
2.2000000e-01 0.0000000e+00 0.0000000e+00 
0.0000000e+00 2.2000000e-01 0.0000000e+00 
2.2000000e-01 2.0000000e-02 0.0000000e+00 
2.0000000e-02 2.2000000e-01 0.0000000e+00 
2.2000000e-01 3.9999999e-02 0.0000000e+00 
3.9999999e-02 2.2000000e-01 0.0000000e+00 
1.0000000e-01 2.0000000e-01 0.0000000e+00 
2.0000000e-01 1.0000000e-01 0.0000000e+00 
1.6000000e-01 1.6000000e-01 0.0000000e+00 
2.2000000e-01 5.9999999e-02 0.0000000e+00 
5.9999999e-02 2.2000000e-01 0.0000000e+00 
1.8000001e-01 1.4000000e-01 0.0000000e+00 
1.4000000e-01 1.8000001e-01 0.0000000e+00 
2.0000000e-01 1.2000000e-01 0.0000000e+00 
1.2000000e-01 2.0000000e-01 0.0000000e+00 
7.9999998e-02 2.2000000e-01 0.0000000e+00 
2.2000000e-01 7.9999998e-02 0.0000000e+00 
2.3999999e-01 0.0000000e+00 0.0000000e+00 
0.0000000e+00 2.3999999e-01 0.0000000e+00 
2.3999999e-01 2.0000000e-02 0.0000000e+00 
1.8000001e-01 1.6000000e-01 0.0000000e+00 
1.6000000e-01 1.8000001e-01 0.0000000e+00 
2.0000000e-02 2.3999999e-01 0.0000000e+00 
2.2000000e-01 1.0000000e-01 0.0000000e+00 
1.0000000e-01 2.2000000e-01 0.0000000e+00 
3.9999999e-02 2.3999999e-01 0.0000000e+00 
2.3999999e-01 3.9999999e-02 0.0000000e+00 
1.4000000e-01 2.0000000e-01 0.0000000e+00 
2.0000000e-01 1.4000000e-01 0.0000000e+00 
2.3999999e-01 5.9999999e-02 0.0000000e+00 
5.9999999e-02 2.3999999e-01 0.0000000e+00 
2.2000000e-01 1.2000000e-01 0.0000000e+00 
1.2000000e-01 2.2000000e-01 0.0000000e+00 
7.9999998e-02 2.3999999e-01 0.0000000e+00 
2.3999999e-01 7.9999998e-02 0.0000000e+00 
1.8000001e-01 1.8000001e-01 0.0000000e+00 
2.0000000e-01 1.6000000e-01 0.0000000e+00 
1.6000000e-01 2.0000000e-01 0.0000000e+00 
1.0000000e-01 2.3999999e-01 0.0000000e+00 
2.3999999e-01 1.0000000e-01 0.0000000e+00 
0.0000000e+00 2.5999999e-01 0.0000000e+00 
2.5999999e-01 0.0000000e+00 0.0000000e+00 
1.4000000e-01 2.2000000e-01 0.0000000e+00 
2.2000000e-01 1.4000000e-01 0.0000000e+00 
2.0000000e-02 2.5999999e-01 0.0000000e+00 
2.5999999e-01 2.0000000e-02 0.0000000e+00 
3.9999999e-02 2.5999999e-01 0.0000000e+00 
2.5999999e-01 3.9999999e-02 0.0000000e+00 
5.9999999e-02 2.5999999e-01 0.0000000e+00 
2.5999999e-01 5.9999999e-02 0.0000000e+00 
2.3999999e-01 1.2000000e-01 0.0000000e+00 
1.2000000e-01 2.3999999e-01 0.0000000e+00 
1.8000001e-01 2.0000000e-01 0.0000000e+00 
2.0000000e-01 1.8000001e-01 0.0000000e+00 
2.2000000e-01 1.6000000e-01 0.0000000e+00 
7.9999998e-02 2.5999999e-01 0.0000000e+00 
2.5999999e-01 7.9999998e-02 0.0000000e+00 
1.6000000e-01 2.2000000e-01 0.0000000e+00 
2.3999999e-01 1.4000000e-01 0.0000000e+00 
1.4000000e-01 2.3999999e-01 0.0000000e+00 
1.0000000e-01 2.5999999e-01 0.0000000e+00 
2.5999999e-01 1.0000000e-01 0.0000000e+00 
2.8000000e-01 0.0000000e+00 0.0000000e+00 
0.0000000e+00 2.8000000e-01 0.0000000e+00 
2.0000000e-02 2.8000000e-01 0.0000000e+00 
2.8000000e-01 2.0000000e-02 0.0000000e+00 
2.8000000e-01 3.9999999e-02 0.0000000e+00 
3.9999999e-02 2.8000000e-01 0.0000000e+00 
2.0000000e-01 2.0000000e-01 0.0000000e+00 
1.8000001e-01 2.2000000e-01 0.0000000e+00 
2.2000000e-01 1.8000001e-01 0.0000000e+00 
2.8000000e-01 5.9999999e-02 0.0000000e+00 
2.5999999e-01 1.2000000e-01 0.0000000e+00 
1.2000000e-01 2.5999999e-01 0.0000000e+00 
5.9999999e-02 2.8000000e-01 0.0000000e+00 
2.3999999e-01 1.6000000e-01 0.0000000e+00 
1.6000000e-01 2.3999999e-01 0.0000000e+00 
7.9999998e-02 2.8000000e-01 0.0000000e+00 
2.8000000e-01 7.9999998e-02 0.0000000e+00 
1.4000000e-01 2.5999999e-01 0.0000000e+00 
2.5999999e-01 1.4000000e-01 0.0000000e+00 
2.2000000e-01 2.0000000e-01 0.0000000e+00 
1.0000000e-01 2.8000000e-01 0.0000000e+00 
2.0000000e-01 2.2000000e-01 0.0000000e+00 
2.8000000e-01 1.0000000e-01 0.0000000e+00 
1.8000001e-01 2.3999999e-01 0.0000000e+00 
3.0000001e-01 0.0000000e+00 0.0000000e+00 
2.3999999e-01 1.8000001e-01 0.0000000e+00 
0.0000000e+00 3.0000001e-01 0.0000000e+00 
3.0000001e-01 2.0000000e-02 0.0000000e+00 
2.0000000e-02 3.0000001e-01 0.0000000e+00 
3.9999999e-02 3.0000001e-01 0.0000000e+00 
3.0000001e-01 3.9999999e-02 0.0000000e+00 
1.2000000e-01 2.8000000e-01 0.0000000e+00 
2.8000000e-01 1.2000000e-01 0.0000000e+00 
1.6000000e-01 2.5999999e-01 0.0000000e+00 
2.5999999e-01 1.6000000e-01 0.0000000e+00 
5.9999999e-02 3.0000001e-01 0.0000000e+00 
3.0000001e-01 5.9999999e-02 0.0000000e+00 
7.9999998e-02 3.0000001e-01 0.0000000e+00 
3.0000001e-01 7.9999998e-02 0.0000000e+00 
2.2000000e-01 2.2000000e-01 0.0000000e+00 
2.3999999e-01 2.0000000e-01 0.0000000e+00 
2.0000000e-01 2.3999999e-01 0.0000000e+00 
1.4000000e-01 2.8000000e-01 0.0000000e+00 
2.8000000e-01 1.4000000e-01 0.0000000e+00 
1.0000000e-01 3.0000001e-01 0.0000000e+00 
2.5999999e-01 1.8000001e-01 0.0000000e+00 
1.8000001e-01 2.5999999e-01 0.0000000e+00 
3.0000001e-01 1.0000000e-01 0.0000000e+00 
0.0000000e+00 3.1999999e-01 0.0000000e+00 
3.1999999e-01 0.0000000e+00 0.0000000e+00 
2.0000000e-02 3.1999999e-01 0.0000000e+00 
3.1999999e-01 2.0000000e-02 0.0000000e+00 
3.9999999e-02 3.1999999e-01 0.0000000e+00 
1.6000000e-01 2.8000000e-01 0.0000000e+00 
3.1999999e-01 3.9999999e-02 0.0000000e+00 
2.8000000e-01 1.6000000e-01 0.0000000e+00 
1.2000000e-01 3.0000001e-01 0.0000000e+00 
3.0000001e-01 1.2000000e-01 0.0000000e+00 
2.2000000e-01 2.3999999e-01 0.0000000e+00 
5.9999999e-02 3.1999999e-01 0.0000000e+00 
2.3999999e-01 2.2000000e-01 0.0000000e+00 
3.1999999e-01 5.9999999e-02 0.0000000e+00 
2.0000000e-01 2.5999999e-01 0.0000000e+00 
2.5999999e-01 2.0000000e-01 0.0000000e+00 
[...]
POINT_DATA 2601
FIELD FieldData 1
TEMPERATURE 1 2601  float
0.0000000e+00
0.0000000e+00
9.8627061e-04
1.5845186e-03
1.9686490e-03
0.0000000e+00
3.1600606e-03
1.8751565e-03
3.7376604e-03
2.9432578e-03
0.0000000e+00
4.7205114e-03
2.1437840e-03
4.2713434e-03
5.5801906e-03
3.9062509e-03
0.0000000e+00
6.2596397e-03
2.3611165e-03
6.3741608e-03
7.3952544e-03
4.7025871e-03
7.0148231e-03
8.4434878e-03
4.8538279e-03
0.0000000e+00
7.7711660e-03
2.5284693e-03
5.0339890e-03
9.1752298e-03
9.2879292e-03
1.0470368e-02
7.5059994e-03
5.7822494e-03
0.0000000e+00
9.2488099e-03
2.6457189e-03
1.0912420e-02
5.2652922e-03
1.1511708e-02
9.9335359e-03
1.2445691e-02
7.8472653e-03
0.0000000e+00
6.6878502e-03
1.2305226e-02
2.7151853e-03
1.0686339e-02
1.3675717e-02
1.0379667e-02
5.4011280e-03
1.2599121e-02
1.4360280e-02
8.0455299e-03
1.4609336e-02
1.2849985e-02
7.5670579e-03
0.0000000e+00
1.2077617e-02
1.0635448e-02
2.7403382e-03
1.5769370e-02
1.4227704e-02
5.4484303e-03
1.5245206e-02
1.6205003e-02
8.1111677e-03
1.3157235e-02
1.6833894e-02
1.7782085e-02
1.0714645e-02
0.0000000e+00
8.4164012e-03
1.3416667e-02
2.7253323e-03
5.4155127e-03
1.5790721e-02
1.5596574e-02
1.7551949e-02
1.3244064e-02
1.8966857e-02
1.7970923e-02
8.0566416e-03
1.0633852e-02
1.9703472e-02
1.7938614e-02
1.5683746e-02
1.9756669e-02
0.0000000e+00
9.2325294e-03
1.4697739e-02
2.6746299e-03
1.7281022e-02
5.3113154e-03
1.3131163e-02
2.0996366e-02
1.9649470e-02
7.8953886e-03
1.8017264e-02
2.0168198e-02
2.1523565e-02
1.0411022e-02
2.1845950e-02
1.5531453e-02
1.0012221e-02
0.0000000e+00
1.5915381e-02
2.5927492e-03
1.8691882e-02
5.1449025e-03
1.2841016e-02
2.2911027e-02
2.0227691e-02
2.1232635e-02
7.6410668e-03
2.2270212e-02
1.7816583e-02
2.3806881e-02
1.5166731e-02
1.0064474e-02
2.3233104e-02
1.0752399e-02
0.0000000e+00
1.7064516e-02
2.2298004e-02
1.9967655e-02
2.4840967e-03
2.4700295e-02
1.2396699e-02
4.9251327e-03
2.0017156e-02
1.7368164e-02
2.4230050e-02
2.2713194e-02
7.3070657e-03
2.5627526e-02
1.4617518e-02
9.6122539e-03
2.4823833e-02
2.1965466e-02
2.4211647e-02
1.9424228e-02
1.1821078e-02
2.6354862e-02
0.0000000e+00
1.1450142e-02
1.6704949e-02
2.6034204e-02
2.3528619e-03
1.8140525e-02
4.6604434e-03
2.1251410e-02
6.9061867e-03
2.4084924e-02
2.7297452e-02
1.3911730e-02
2.1313224e-02
2.3791166e-02
2.5953248e-02
9.0716984e-03
2.6288809e-02
1.8635495e-02
2.7670948e-02
1.5860181e-02
1.1136280e-02
2.7867103e-02
1.2102696e-02
0.0000000e+00
2.2029507e-03
1.9139314e-02
2.2390071e-02
4.3587182e-03
2.3013607e-02
2.0384654e-02
2.5427142e-02
2.5342820e-02
2.8808316e-02
1.3076623e-02
6.4504310e-03
2.7509520e-02
1.7640382e-02
8.4591508e-03
2.7622724e-02
1.4866693e-02
2.9131111e-02
2.4505001e-02
1.0363309e-02
2.1927716e-02
2.9231496e-02
1.9224742e-02
1.2707487e-02
2.6858110e-02
0.0000000e+00
2.0057384e-02
2.0379401e-03
4.0271920e-03
2.3429535e-02
1.2138302e-02
3.0154444e-02
1.6477855e-02
2.8870232e-02
5.9508500e-03
2.6483282e-02
7.7897310e-03
2.8822163e-02
2.3241073e-02
2.5769673e-02
2.0585064e-02
1.3756284e-02
3.0408859e-02
9.5217191e-03
2.8072497e-02
1.7879354e-02
3.0445004e-02
0.0000000e+00
1.3262127e-02
1.8610491e-03
2.0891868e-02
3.6723833e-03
1.5186224e-02
2.4367258e-02
3.0029329e-02
1.1121270e-02
3.1333361e-02
2.1693589e-02
5.4174252e-03
2.4303520e-02
2.7504236e-02
1.9038985e-02
2.6793897e-02
7.0771445e-03
2.9885802e-02
1.2559121e-02
3.1502433e-02
2.9063633e-02
1.6394176e-02
8.6293211e-03
3.1507362e-02
2.2526024e-02
1.3802205e-02
3.0985804e-02
0.0000000e+00
1.3764427e-02
1.6751109e-03
2.5099507e-02
1.9925311e-02
2.1640562e-02
1.0047980e-02
3.2346193e-02
3.3000342e-03
2.5201784e-02
2.7570738e-02
1.7344505e-02
4.8589618e-03
2.8405203e-02
6.3335015e-03
3.0814506e-02
3.2414690e-02
1.1303010e-02
1.4814074e-02
2.9831653e-02
2.3060039e-02
2.0506475e-02
7.7018864e-03
3.2421224e-02
1.7999308e-02
2.5617989e-02
1.2360071e-02
3.1744696e-02
1.4212405e-02
0.0000000e+00
2.2301907e-02
1.4825541e-03
1.5554805e-02
8.9383535e-03
2.8099637e-02
3.3197895e-02
2.5932722e-02
2.9150646e-03
2.9187240e-02
4.2829965e-03
1.3180634e-02
3.0383570e-02
1.0012719e-02
2.0765856e-02
3.3153467e-02
5.5691591e-03
3.1611260e-02
1.8329348e-02
2.3291927e-02
1.5986323e-02
2.5865382e-02
3.3192091e-02
6.7528859e-03
3.2317244e-02
1.0890228e-02
2.8393142e-02
1.3723571e-02
3.3897217e-02
7.8093815e-03
1.4604295e-02
0.0000000e+00
2.2874951e-02
1.2853879e-03
2.5215349e-03
2.6560636e-02
2.0659395e-02
1.8280771e-02
2.3198517e-02
1.6054623e-02
2.9852787e-02
1.1531740e-02
3.6957269e-03
3.0735279e-02
3.3731531e-02
8.7092677e-03
1.3940382e-02
3.2280944e-02
2.5843594e-02
4.7925916e-03
5.7932790e-03
3.3828054e-02
3.2721147e-02
9.4183953e-03
1.1894476e-02
2.8469611e-02
1.7929805e-02
2.0283280e-02
1.5791217e-02
6.6747856e-03
3.4456339e-02
1.3814577e-02
1.4938546e-02
0.0000000e+00
2.2859478e-02
2.3359263e-02
1.0851967e-03
2.7086873e-02
2.1226297e-03
3.0910358e-02
9.8984940e-03
3.0405369e-02
3.1019691e-03
7.4095088e-03
3.4166392e-02
2.5597749e-02
1.1935505e-02
4.0103053e-03
3.2829922e-02
1.4883939e-02
1.6912051e-02
1.0105480e-02
2.8357733e-02
3.2979868e-02
7.9649379e-03
1.9351048e-02
1.3148157e-02
4.8313555e-03
3.4339171e-02
1.1586542e-02
2.2199120e-02
3.4890283e-02
5.5448231e-03
1.5213843e-02
0.0000000e+00
2.3754824e-02
8.8314962e-04
8.3042933e-03
3.0939825e-02
2.7513316e-02
1.7206683e-03
1.0012097e-02
2.5175914e-02
6.1257863e-03
3.4478866e-02
3.0849194e-02
1.4238583e-02
2.5051574e-03
1.2537288e-02
1.6274041e-02
3.3265412e-02
3.2268029e-03
1.8542184e-02
1.0951642e-02
2.8102947e-02
8.3885174e-03
6.5449658e-03
3.3124343e-02
3.8726625e-03
3.4736656e-02
2.1283116e-02
9.4870105e-03
3.5215296e-02
4.4260300e-03
6.7659705e-03
9.0967407e-03
1.0384198e-02
3.0855685e-02
8.1605958e-03
2.4543785e-02
0.0000000e+00
1.5429097e-02
6.8002811e-04
2.4061896e-02
1.2089474e-02
8.1527503e-03
2.7842103e-02
1.3171580e-03
3.4693263e-02
4.8660268e-03
3.1188678e-02
1.9074095e-03
8.8848621e-03
1.7639404e-02
2.4446440e-03
3.3594768e-02
6.7633670e-03
2.7780546e-02
5.1665134e-03
3.3182349e-02
7.6931259e-03
2.0544974e-02
3.5031665e-02
2.9199701e-03
7.3815295e-03
6.8503143e-03
8.9778258e-03
3.5447896e-02
1.0760224e-02
6.2383781e-03
3.3212423e-03
2.3737347e-02
6.4345542e-03
3.0727902e-02
5.3001619e-03
1.5583460e-02
0.0000000e+00
4.7627950e-04
5.6292624e-03
1.3241339e-02
2.4280887e-02
3.4831483e-02
3.6325590e-03
9.1289886e-04
2.8075326e-02
1.3096827e-03
3.1427961e-02
5.2113575e-03
2.7305404e-02
1.9836711e-02
6.0089310e-03
3.3824731e-02
5.3531895e-03
1.6646318e-03
6.1038695e-03
3.3193197e-02
3.8339954e-03
7.3558041e-03
4.9752095e-03
3.5234343e-02
1.9735044e-03
4.6206322e-03
9.4091604e-03
4.9579032e-03
2.3376532e-02
2.2294642e-03
3.9015939e-03
3.0567780e-02
3.5602272e-02
1.2114123e-02
4.1671093e-03
0.0000000e+00
1.5676323e-02
2.4412222e-02
2.7209515e-04
2.4227872e-03
3.4914076e-02
3.2667143e-03
2.8214766e-02
5.0814910e-04
3.3775459e-03
4.3347445e-03
3.8021042e-03
2.6975242e-02
3.1570461e-02
1.5397050e-02
3.5928453e-03
7.1203831e-04
3.3717081e-03
5.7597859e-03
8.8620489e-04
3.3960819e-02
3.3177696e-02
2.5403767e-03
8.0843754e-03
3.2541766e-03
3.5352841e-02
1.0314411e-03
2.2736445e-02
3.5457823e-03
1.1094376e-02
2.9639087e-03
2.5666677e-03
3.0430401e-02
3.5690021e-02
1.1467518e-03
0.0000000e+00
0.0000000e+00
0.0000000e+00
0.0000000e+00
1.2292129e-03
0.0000000e+00
1.5707318e-02
3.4955967e-02
4.2138016e-03
2.1202692e-03
6.7508488e-05
2.4456235e-02
1.4638055e-02
2.5232919e-03
2.8261673e-02
1.0283344e-04
2.4764850e-03
2.6684301e-02
1.1399324e-04
3.1618547e-02
6.8565533e-03
2.1399600e-03
3.3157010e-02
1.2737308e-03
1.0798243e-04
3.4006827e-02
0.0000000e+00
0.0000000e+00
2.2836528e-03
3.5392847e-02
9.0773719e-05
0.0000000e+00
2.2305412e-02
1.9899167e-03
1.0227135e-02
0.0000000e+00
0.0000000e+00
3.0328115e-02
1.2727515e-03
3.5719231e-02
6.7400142e-05
0.0000000e+00
0.0000000e+00
1.5801011e-03
1.4017909e-02
4.2051168e-05
3.4968548e-02
2.6482526e-02
1.2122807e-03
1.5676323e-02
0.0000000e+00
2.4413092e-02
-1.3750218e-04
-3.0323435e-04
5.8395518e-03
1.2974980e-03
2.8216582e-02
0.0000000e+00
-4.8510282e-04
3.1573225e-02
0.0000000e+00
0.0000000e+00
1.7932329e-05
3.3145633e-02
0.0000000e+00
3.3964425e-02
-6.7163270e-04
1.0906882e-03
2.1983737e-02
0.0000000e+00
0.0000000e+00
9.4533693e-03
1.1869121e-03
-8.5175608e-04
3.5356965e-02
3.0282652e-02
-3.4135242e-06
0.0000000e+00
0.0000000e+00
3.5693917e-02
-1.0144952e-03
1.3554321e-02
6.9458835e-04
0.0000000e+00
0.0000000e+00
0.0000000e+00
0.0000000e+00
-1.1486306e-03
3.4958120e-02
-2.6883576e-05
2.6385775e-02
0.0000000e+00
0.0000000e+00
1.5583460e-02
0.0000000e+00
-3.4291871e-04
2.4282746e-02
0.0000000e+00
2.8079223e-02
-7.1015087e-04
3.1433988e-02
-1.0857363e-03
0.0000000e+00
0.0000000e+00
3.3154093e-02
-1.2422561e-03
3.3832841e-02
4.6600678e-04
8.8809803e-03
-1.4539544e-03
2.1793837e-02
-7.7560748e-05
3.5244193e-02
-1.7989131e-03
0.0000000e+00
0.0000000e+00
3.0314509e-02
-1.2832645e-03
0.0000000e+00
0.0000000e+00
3.5613008e-02
0.0000000e+00
0.0000000e+00
-2.1040284e-03
-3.0093169e-04
1.3133933e-02
0.0000000e+00
0.0000000e+00
0.0000000e+00
0.0000000e+00
2.6444245e-02
-1.2544561e-03
3.4923568e-02
-2.3513676e-03
0.0000000e+00
1.5429097e-02
2.4064930e-02
-5.4860307e-04
0.0000000e+00
0.0000000e+00
-1.1177585e-03
2.7848508e-02
3.1198764e-02
3.3182483e-02
-1.6879739e-03
-2.5210064e-03
8.4013613e-03
-3.5753561e-04
-1.1552337e-03
2.1900043e-02
-2.2396583e-03
0.0000000e+00
3.3608779e-02
0.0000000e+00
0.0000000e+00
0.0000000e+00
0.0000000e+00
0.0000000e+00
0.0000000e+00
-2.7525441e-03
3.5049714e-02
3.0420057e-02
-2.5898768e-03
0.0000000e+00
0.0000000e+00
-7.2033098e-04
1.3372524e-02
3.5469696e-02
-3.2049587e-03
0.0000000e+00
0.0000000e+00
2.6652632e-02
-2.5254968e-03
0.0000000e+00
0.0000000e+00
-3.5730959e-03
3.4856483e-02
0.0000000e+00
1.5213843e-02
0.0000000e+00
0.0000000e+00
2.3759212e-02
-7.5422984e-04
-1.5255075e-03
0.0000000e+00
0.0000000e+00
-5.4349960e-04
8.6951507e-03
2.7522642e-02
3.3217568e-02
-3.8295002e-03
2.2206731e-02
0.0000000e+00
0.0000000e+00
3.0864088e-02
-2.2912510e-03
-2.3106460e-03
0.0000000e+00
0.0000000e+00
-3.0285015e-03
3.3286624e-02
-3.9451174e-03
0.0000000e+00
3.0594194e-02
0.0000000e+00
-3.7132062e-03
3.4765061e-02
0.0000000e+00
0.0000000e+00
1.3874554e-02
-1.4550396e-03
-4.3193917e-03
3.5252042e-02
0.0000000e+00
0.0000000e+00
0.0000000e+00
2.6956474e-02
0.0000000e+00
-3.8661391e-03
0.0000000e+00
-4.8181582e-03
3.4739096e-02
0.0000000e+00
0.0000000e+00
9.3418853e-03
-1.0893798e-03
0.0000000e+00
1.4938546e-02
0.0000000e+00
0.0000000e+00
-9.5922500e-04
2.3365114e-02
0.0000000e+00
0.0000000e+00
2.7099352e-02
-1.9323307e-03
-5.1771128e-03
-3.6209568e-03
2.2764420e-02
3.3241991e-02
3.0425491e-02
-2.8941734e-03
0.0000000e+00
0.0000000e+00
-3.8190281e-03
3.2859024e-02
3.0786805e-02
-5.3571924e-03
0.0000000e+00
0.0000000e+00
0.0000000e+00
-4.6797851e-03
0.0000000e+00
3.4379054e-02
-2.4616367e-03
1.4396325e-02
0.0000000e+00
0.0000000e+00
0.0000000e+00
0.0000000e+00
3.4943301e-02
-5.4470333e-03
0.0000000e+00
0.0000000e+00
2.7481191e-02
-5.3252485e-03
-6.0881213e-03
0.0000000e+00
0.0000000e+00
3.4548685e-02
-1.9360802e-03
1.0055452e-02
0.0000000e+00
0.0000000e+00
1.4604295e-02
0.0000000e+00
-1.1627109e-03
2.3164935e-02
-4.9857167e-03
2.2882240e-02
3.3213973e-02
-6.5661487e-03
0.0000000e+00
0.0000000e+00
-2.3365270e-03
2.6576217e-02
0.0000000e+00
0.0000000e+00
0.0000000e+00
2.9878046e-02
-3.4943279e-03
0.0000000e+00
0.0000000e+00
3.2317780e-02
-4.6082889e-03
0.0000000e+00
0.0000000e+00
3.0980773e-02
-6.8393992e-03
0.0000000e+00
0.0000000e+00
1.8984048e-02
-4.5024124e-03
0.0000000e+00
0.0000000e+00
-5.6490377e-03
3.3879068e-02
-6.5847291e-03
3.4525111e-02
0.0000000e+00
2.7907018e-02
0.0000000e+00
-6.8623009e-03
0.0000000e+00
0.0000000e+00
-2.8421970e-03
1.1013109e-02
3.4257639e-02
-7.3801158e-03
0.0000000e+00
0.0000000e+00
0.0000000e+00
0.0000000e+00
0.0000000e+00
0.0000000e+00
2.4072440e-02
-6.5687541e-03
0.0000000e+00
1.4212405e-02
-1.3634600e-03
0.0000000e+00
0.0000000e+00
3.3100631e-02
-7.9956912e-03
2.2310460e-02
-2.7356648e-03
2.5951030e-02
-4.0881238e-03
2.9216997e-02
0.0000000e+00
0.0000000e+00
7.0155463e-03
-2.0443338e-03
-5.3915987e-03
0.0000000e+00
0.0000000e+00
3.1654812e-02
-8.3875321e-03
3.1097837e-02
1.9777844e-02
-6.0008056e-03
-6.6152695e-03
3.3252656e-02
0.0000000e+00
0.0000000e+00
0.0000000e+00
0.0000000e+00
0.0000000e+00
3.3979110e-02
-7.7258418e-03
-8.5051414e-03
2.8309857e-02
0.0000000e+00
0.0000000e+00
0.0000000e+00
0.0000000e+00
-3.9616027e-03
1.2102701e-02
0.0000000e+00
0.0000000e+00
3.3840492e-02
-8.6866850e-03
0.0000000e+00
0.0000000e+00
-8.3111404e-03
2.4856901e-02
-9.4571318e-03
3.2864567e-02
0.0000000e+00
1.3764427e-02
0.0000000e+00
0.0000000e+00
2.1650061e-02
-1.5598616e-03
-3.1265162e-03
2.5222143e-02
-3.0600324e-03
8.2991561e-03
0.0000000e+00
0.0000000e+00
2.8438333e-02
-4.6706935e-03
-9.9921012e-03
-7.6804678e-03
0.0000000e+00
0.0000000e+00
-6.1624050e-03
3.0863054e-02
2.0668035e-02
3.1097274e-02
0.0000000e+00
0.0000000e+00
0.0000000e+00
0.0000000e+00
-7.5701559e-03
3.2488763e-02
0.0000000e+00
0.0000000e+00
-1.0242341e-02
2.8602598e-02
0.0000000e+00
-8.8601243e-03
3.3289157e-02
0.0000000e+00
0.0000000e+00
0.0000000e+00
-6.9166394e-03
1.6757043e-02
0.0000000e+00
0.0000000e+00
3.3274520e-02
-9.9953944e-03
-1.0157797e-02
0.0000000e+00
0.0000000e+00
2.5462922e-02
0.0000000e+00
3.2475669e-02
-1.0935408e-02
0.0000000e+00
0.0000000e+00
0.0000000e+00
0.0000000e+00
0.0000000e+00
1.3262127e-02
-4.4143237e-03
-1.7499046e-03
9.6562691e-03
2.0901883e-02
-3.5050244e-03
0.0000000e+00
0.0000000e+00
2.4388749e-02
-5.2358541e-03
0.0000000e+00
0.0000000e+00
2.7539244e-02
-9.6640047e-03
2.1764779e-02
0.0000000e+00
0.0000000e+00
3.0940101e-02
-1.1635599e-02
-6.9122575e-03
2.9937109e-02
-8.5027525e-03
3.1578675e-02
0.0000000e+00
0.0000000e+00
-3.3114061e-03
6.3866214e-03
-1.2048617e-02
0.0000000e+00
0.0000000e+00
2.8731227e-02
3.2442320e-02
-9.9737877e-03
-8.8406308e-03
1.7792815e-02
0.0000000e+00
0.0000000e+00
0.0000000e+00
0.0000000e+00
-1.1289105e-02
0.0000000e+00
0.0000000e+00
3.2541659e-02
2.5922075e-02
-1.2120085e-02
0.0000000e+00
0.0000000e+00
0.0000000e+00
0.0000000e+00
-1.2409274e-02
-5.9715784e-03
1.0917326e-02
3.1909730e-02
0.0000000e+00
0.0000000e+00
0.0000000e+00
1.2707487e-02
0.0000000e+00
0.0000000e+00
-1.9311750e-03
2.0067394e-02
-3.8663058e-03
2.3451075e-02
-1.1824581e-02
2.2642482e-02
-5.7761287e-03
2.6518425e-02
-1.3291768e-02
3.0595170e-02
2.8873686e-02
0.0000000e+00
0.0000000e+00
-7.6308749e-03
7.7840649e-03
-4.8420411e-03
3.0516554e-02
-9.3996497e-03
0.0000000e+00
0.0000000e+00
0.0000000e+00
0.0000000e+00
0.0000000e+00
-1.3890747e-02
2.8659033e-02
-1.0974805e-02
0.0000000e+00
0.0000000e+00
1.8798219e-02
0.0000000e+00
3.1429574e-02
0.0000000e+00
-1.1049817e-02
0.0000000e+00
0.0000000e+00
-1.2546483e-02
3.1628978e-02
-1.4162036e-02
2.6179392e-02
0.0000000e+00
0.0000000e+00
0.0000000e+00
0.0000000e+00
-1.0099595e-02
1.5368544e-02
0.0000000e+00
0.0000000e+00
-1.3852214e-02
3.1149324e-02
1.2102696e-02
0.0000000e+00
1.9148752e-02
-2.1008637e-03
-4.2046746e-03
2.2410484e-02
0.0000000e+00
0.0000000e+00
-1.4047726e-02
2.3228053e-02
0.0000000e+00
0.0000000e+00
-6.2828069e-03
2.5376238e-02
0.0000000e+00
0.0000000e+00
3.0039236e-02
-1.4927019e-02
2.7671810e-02
-8.3062751e-03
0.0000000e+00
0.0000000e+00
0.0000000e+00
0.0000000e+00
-6.6511510e-03
8.9699393e-03
2.9299684e-02
-1.0245215e-02
0.0000000e+00
0.0000000e+00
-1.5729366e-02
2.8359324e-02
0.0000000e+00
0.0000000e+00
1.9994672e-02
-1.3569017e-02
3.0246025e-02
-1.2068385e-02
0.0000000e+00
0.0000000e+00
3.0528955e-02
-1.3742772e-02
6.3843010e-03
-5.4687983e-03
-1.6215792e-02
2.6179178e-02
0.0000000e+00
0.0000000e+00
1.6260633e-02
-1.2443446e-02
0.0000000e+00
0.0000000e+00
0.0000000e+00
3.0183719e-02
0.0000000e+00
0.0000000e+00
-1.5233400e-02
0.0000000e+00
0.0000000e+00
-1.6351372e-02
2.3588421e-02
0.0000000e+00
1.1450142e-02
1.8148806e-02
-2.2557818e-03
0.0000000e+00
0.0000000e+00
2.1269495e-02
-4.5136837e-03
2.9258469e-02
-1.6503548e-02
-6.7460281e-03
2.4114743e-02
0.0000000e+00
0.0000000e+00
-1.1501634e-02
1.3222676e-02
0.0000000e+00
0.0000000e+00
-8.9249276e-03
0.0000000e+00
0.0000000e+00
2.6332831e-02
2.0655908e-02
2.7928457e-02
-1.1021871e-02
-1.6080448e-02
-1.7515244e-02
2.7811218e-02
0.0000000e+00
0.0000000e+00
2.8890831e-02
0.0000000e+00
0.0000000e+00
-1.3007331e-02
0.0000000e+00
0.0000000e+00
-7.6023913e-03
7.6023033e-03
0.0000000e+00
0.0000000e+00
-1.8231392e-02
2.5909709e-02
0.0000000e+00
0.0000000e+00
2.9239271e-02
-1.4850470e-02
-1.5470268e-02
1.7599525e-02
0.0000000e+00
0.0000000e+00
0.0000000e+00
0.0000000e+00
2.9008970e-02
-1.6519075e-02
-1.8614911e-02
2.3627751e-02
0.0000000e+00
1.0752399e-02
-2.3923817e-03
1.7071068e-02
0.0000000e+00
0.0000000e+00
-6.3847015e-03
5.4682991e-03
-4.7861724e-03
2.0031743e-02
2.8246716e-02
-1.4188796e-02
1.4189452e-02
0.0000000e+00
0.0000000e+00
-1.7979767e-02
2.2737611e-02
-7.1548740e-03
0.0000000e+00
2.4860311e-02
-9.4719213e-03
0.0000000e+00
0.0000000e+00
2.1060141e-02
0.0000000e+00
0.0000000e+00
-1.8644217e-02
0.0000000e+00
0.0000000e+00
-1.9198755e-02
2.6406171e-02
-1.1710366e-02
2.7007971e-02
0.0000000e+00
0.0000000e+00
-1.3842573e-02
2.7366923e-02
0.0000000e+00
0.0000000e+00
-1.3222036e-02
1.1501733e-02
0.0000000e+00
0.0000000e+00
0.0000000e+00
2.5355138e-02
-2.0142814e-02
0.0000000e+00
1.8272787e-02
-1.8271662e-02
-1.5840035e-02
2.7762407e-02
0.0000000e+00
2.7627064e-02
0.0000000e+00
-1.7673355e-02
-2.0782346e-02
0.0000000e+00
2.3358406e-02
0.0000000e+00
-8.9693964e-03
6.6511263e-03
0.0000000e+00
0.0000000e+00
0.0000000e+00
0.0000000e+00
-1.7598251e-02
0.0000000e+00
1.0012221e-02
1.5470920e-02
1.5919665e-02
-2.5067830e-03
1.8701883e-02
0.0000000e+00
-1.9312527e-02
0.0000000e+00
-5.0143260e-03
2.7005721e-02
2.1249996e-02
-7.4974736e-03
0.0000000e+00
0.0000000e+00
-9.9311313e-03
2.3259800e-02
0.0000000e+00
0.0000000e+00
2.1091281e-02
-2.1089919e-02
2.5950473e-02
-2.0727560e-02
2.4738718e-02
-1.2290030e-02
-7.7838274e-03
4.8418492e-03
-1.6259231e-02
1.2443700e-02
0.0000000e+00
0.0000000e+00
0.0000000e+00
0.0000000e+00
-1.4548509e-02
2.5680516e-02
-2.1058472e-02
2.4519147e-02
1.8645175e-02
-2.1889709e-02
0.0000000e+00
2.6104968e-02
-1.6680401e-02
0.0000000e+00
0.0000000e+00
0.0000000e+00
0.0000000e+00
0.0000000e+00
0.0000000e+00
-1.8659068e-02
-1.5367023e-02
1.0099541e-02
2.6045157e-02
-6.3874680e-03
0.0000000e+00
0.0000000e+00
3.3107498e-03
2.2774154e-02
-2.2772767e-02
1.6081052e-02
-2.0653903e-02
0.0000000e+00
0.0000000e+00
0.0000000e+00
9.2325294e-03
0.0000000e+00
0.0000000e+00
1.4699281e-02
-2.5948123e-03
2.5543366e-02
-2.0457685e-02
-5.1897569e-03
1.7285481e-02
1.9658336e-02
-7.7611352e-03
2.0783434e-02
-2.3356630e-02
-1.0285412e-02
2.1538557e-02
0.0000000e+00
0.0000000e+00
-1.0915637e-02
5.9715593e-03
-2.2049841e-02
2.4648001e-02
0.0000000e+00
0.0000000e+00
1.3569326e-02
0.0000000e+00
0.0000000e+00
2.2934182e-02
-1.2739049e-02
-1.9992316e-02
0.0000000e+00
0.0000000e+00
2.3840576e-02
-1.5098365e-02
0.0000000e+00
0.0000000e+00
1.8615702e-02
-2.3625510e-02
0.0000000e+00
0.0000000e+00
2.3411760e-02
-2.3410495e-02
2.4276942e-02
-1.7339466e-02
0.0000000e+00
0.0000000e+00
4.4139070e-03
-9.6553359e-03
1.0974896e-02
-1.8795503e-02
-1.9438319e-02
2.4274489e-02
-2.4517488e-02
2.1890778e-02
0.0000000e+00
0.0000000e+00
0.0000000e+00
0.0000000e+00
-2.3585638e-02
1.6351897e-02
-2.1371027e-02
0.0000000e+00
8.4164012e-03
2.3872524e-02
0.0000000e+00
-2.6520654e-03
1.3415083e-02
0.0000000e+00
0.0000000e+00
1.5788872e-02
-5.3036348e-03
0.0000000e+00
0.0000000e+00
0.0000000e+00
-7.9325428e-03
-2.5352988e-02
0.0000000e+00
2.0143665e-02
1.7970152e-02
-1.7789815e-02
8.8406317e-03
-8.2992353e-03
3.0598845e-03
-1.0516863e-02
1.9705256e-02
1.4048032e-02
-2.3224643e-02
0.0000000e+00
0.0000000e+00
-2.3114359e-02
2.3115421e-02
-1.3034806e-02
2.1002421e-02
0.0000000e+00
0.0000000e+00
0.0000000e+00
0.0000000e+00
1.8232029e-02
-2.5906956e-02
-1.5464623e-02
2.1858249e-02
2.2050792e-02
-2.4646584e-02
-1.6754061e-02
6.9166799e-03
-1.7784584e-02
2.2290938e-02
0.0000000e+00
0.0000000e+00
-2.2638362e-02
1.1824721e-02
2.0442009e-03
-7.0175780e-03