# vtk DataFile Version 4.0
vtk output
ASCII
DATASET UNSTRUCTURED_GRID
POINTS 2601 float
0.0000000e+00 0.0000000e+00 0.0000000e+00 
0.0000000e+00 2.0000000e-02 0.0000000e+00 
2.0000000e-02 0.0000000e+00 0.0000000e+00 
2.0000000e-02 2.0000000e-02 0.0000000e+00 
3.9999999e-02 0.0000000e+00 0.0000000e+00 
0.0000000e+00 3.9999999e-02 0.0000000e+00 
3.9999999e-02 2.0000000e-02 0.0000000e+00 
2.0000000e-02 3.9999999e-02 0.0000000e+00 
3.9999999e-02 3.9999999e-02 0.0000000e+00 
5.9999999e-02 0.0000000e+00 0.0000000e+00 
0.0000000e+00 5.9999999e-02 0.0000000e+00 
5.9999999e-02 2.0000000e-02 0.0000000e+00 
2.0000000e-02 5.9999999e-02 0.0000000e+00 
3.9999999e-02 5.9999999e-02 0.0000000e+00 
5.9999999e-02 3.9999999e-02 0.0000000e+00 
7.9999998e-02 0.0000000e+00 0.0000000e+00 
0.0000000e+00 7.9999998e-02 0.0000000e+00 
7.9999998e-02 2.0000000e-02 0.0000000e+00 
2.0000000e-02 7.9999998e-02 0.0000000e+00 
5.9999999e-02 5.9999999e-02 0.0000000e+00 
7.9999998e-02 3.9999999e-02 0.0000000e+00 
3.9999999e-02 7.9999998e-02 0.0000000e+00 
5.9999999e-02 7.9999998e-02 0.0000000e+00 
7.9999998e-02 5.9999999e-02 0.0000000e+00 
1.0000000e-01 0.0000000e+00 0.0000000e+00 
0.0000000e+00 1.0000000e-01 0.0000000e+00 
1.0000000e-01 2.0000000e-02 0.0000000e+00 
2.0000000e-02 1.0000000e-01 0.0000000e+00 
3.9999999e-02 1.0000000e-01 0.0000000e+00 
1.0000000e-01 3.9999999e-02 0.0000000e+00 
7.9999998e-02 7.9999998e-02 0.0000000e+00 
1.0000000e-01 5.9999999e-02 0.0000000e+00 
5.9999999e-02 1.0000000e-01 0.0000000e+00 
1.2000000e-01 0.0000000e+00 0.0000000e+00 
0.0000000e+00 1.2000000e-01 0.0000000e+00 
1.2000000e-01 2.0000000e-02 0.0000000e+00 
2.0000000e-02 1.2000000e-01 0.0000000e+00 
1.2000000e-01 3.9999999e-02 0.0000000e+00 
3.9999999e-02 1.2000000e-01 0.0000000e+00 
1.0000000e-01 7.9999998e-02 0.0000000e+00 
7.9999998e-02 1.0000000e-01 0.0000000e+00 
1.2000000e-01 5.9999999e-02 0.0000000e+00 
5.9999999e-02 1.2000000e-01 0.0000000e+00 
0.0000000e+00 1.4000000e-01 0.0000000e+00 
1.4000000e-01 0.0000000e+00 0.0000000e+00 
1.0000000e-01 1.0000000e-01 0.0000000e+00 
2.0000000e-02 1.4000000e-01 0.0000000e+00 
1.4000000e-01 2.0000000e-02 0.0000000e+00 
1.2000000e-01 7.9999998e-02 0.0000000e+00 
7.9999998e-02 1.2000000e-01 0.0000000e+00 
3.9999999e-02 1.4000000e-01 0.0000000e+00 
1.4000000e-01 3.9999999e-02 0.0000000e+00 
1.4000000e-01 5.9999999e-02 0.0000000e+00 
5.9999999e-02 1.4000000e-01 0.0000000e+00 
1.2000000e-01 1.0000000e-01 0.0000000e+00 
1.0000000e-01 1.2000000e-01 0.0000000e+00 
1.6000000e-01 0.0000000e+00 0.0000000e+00 
0.0000000e+00 1.6000000e-01 0.0000000e+00 
1.6000000e-01 2.0000000e-02 0.0000000e+00 
7.9999998e-02 1.4000000e-01 0.0000000e+00 
2.0000000e-02 1.6000000e-01 0.0000000e+00 
1.4000000e-01 7.9999998e-02 0.0000000e+00 
1.6000000e-01 3.9999999e-02 0.0000000e+00 
3.9999999e-02 1.6000000e-01 0.0000000e+00 
1.2000000e-01 1.2000000e-01 0.0000000e+00 
1.6000000e-01 5.9999999e-02 0.0000000e+00 
5.9999999e-02 1.6000000e-01 0.0000000e+00 
1.0000000e-01 1.4000000e-01 0.0000000e+00 
1.4000000e-01 1.0000000e-01 0.0000000e+00 
1.6000000e-01 7.9999998e-02 0.0000000e+00 
7.9999998e-02 1.6000000e-01 0.0000000e+00 
0.0000000e+00 1.8000001e-01 0.0000000e+00 
1.8000001e-01 0.0000000e+00 0.0000000e+00 
1.8000001e-01 2.0000000e-02 0.0000000e+00 
2.0000000e-02 1.8000001e-01 0.0000000e+00 
3.9999999e-02 1.8000001e-01 0.0000000e+00 
1.8000001e-01 3.9999999e-02 0.0000000e+00 
1.2000000e-01 1.4000000e-01 0.0000000e+00 
1.4000000e-01 1.2000000e-01 0.0000000e+00 
1.0000000e-01 1.6000000e-01 0.0000000e+00 
1.6000000e-01 1.0000000e-01 0.0000000e+00 
1.8000001e-01 5.9999999e-02 0.0000000e+00 
5.9999999e-02 1.8000001e-01 0.0000000e+00 
7.9999998e-02 1.8000001e-01 0.0000000e+00 
1.8000001e-01 7.9999998e-02 0.0000000e+00 
1.4000000e-01 1.4000000e-01 0.0000000e+00 
1.2000000e-01 1.6000000e-01 0.0000000e+00 
1.6000000e-01 1.2000000e-01 0.0000000e+00 
0.0000000e+00 2.0000000e-01 0.0000000e+00 
2.0000000e-01 0.0000000e+00 0.0000000e+00 
2.0000000e-01 2.0000000e-02 0.0000000e+00 
2.0000000e-02 2.0000000e-01 0.0000000e+00 
2.0000000e-01 3.9999999e-02 0.0000000e+00 
3.9999999e-02 2.0000000e-01 0.0000000e+00 
1.0000000e-01 1.8000001e-01 0.0000000e+00 
1.8000001e-01 1.0000000e-01 0.0000000e+00 
2.0000000e-01 5.9999999e-02 0.0000000e+00 
5.9999999e-02 2.0000000e-01 0.0000000e+00 
1.4000000e-01 1.6000000e-01 0.0000000e+00 
1.6000000e-01 1.4000000e-01 0.0000000e+00 
2.0000000e-01 7.9999998e-02 0.0000000e+00 
7.9999998e-02 2.0000000e-01 0.0000000e+00 
1.8000001e-01 1.2000000e-01 0.0000000e+00 
1.2000000e-01 1.8000001e-01 0.0000000e+00 
2.2000000e-01 0.0000000e+00 0.0000000e+00 
0.0000000e+00 2.2000000e-01 0.0000000e+00 
2.2000000e-01 2.0000000e-02 0.0000000e+00 
2.0000000e-02 2.2000000e-01 0.0000000e+00 
2.2000000e-01 3.9999999e-02 0.0000000e+00 
3.9999999e-02 2.2000000e-01 0.0000000e+00 
1.0000000e-01 2.0000000e-01 0.0000000e+00 
2.0000000e-01 1.0000000e-01 0.0000000e+00 
1.6000000e-01 1.6000000e-01 0.0000000e+00 
2.2000000e-01 5.9999999e-02 0.0000000e+00 
5.9999999e-02 2.2000000e-01 0.0000000e+00 
1.8000001e-01 1.4000000e-01 0.0000000e+00 
1.4000000e-01 1.8000001e-01 0.0000000e+00 
2.0000000e-01 1.2000000e-01 0.0000000e+00 
1.2000000e-01 2.0000000e-01 0.0000000e+00 
7.9999998e-02 2.2000000e-01 0.0000000e+00 
2.2000000e-01 7.9999998e-02 0.0000000e+00 
2.3999999e-01 0.0000000e+00 0.0000000e+00 
0.0000000e+00 2.3999999e-01 0.0000000e+00 
2.3999999e-01 2.0000000e-02 0.0000000e+00 
1.8000001e-01 1.6000000e-01 0.0000000e+00 
1.6000000e-01 1.8000001e-01 0.0000000e+00 
2.0000000e-02 2.3999999e-01 0.0000000e+00 
2.2000000e-01 1.0000000e-01 0.0000000e+00 
1.0000000e-01 2.2000000e-01 0.0000000e+00 
3.9999999e-02 2.3999999e-01 0.0000000e+00 
2.3999999e-01 3.9999999e-02 0.0000000e+00 
1.4000000e-01 2.0000000e-01 0.0000000e+00 
2.0000000e-01 1.4000000e-01 0.0000000e+00 
2.3999999e-01 5.9999999e-02 0.0000000e+00 
5.9999999e-02 2.3999999e-01 0.0000000e+00 
2.2000000e-01 1.2000000e-01 0.0000000e+00 
1.2000000e-01 2.2000000e-01 0.0000000e+00 
7.9999998e-02 2.3999999e-01 0.0000000e+00 
2.3999999e-01 7.9999998e-02 0.0000000e+00 
1.8000001e-01 1.8000001e-01 0.0000000e+00 
2.0000000e-01 1.6000000e-01 0.0000000e+00 
1.6000000e-01 2.0000000e-01 0.0000000e+00 
1.0000000e-01 2.3999999e-01 0.0000000e+00 
2.3999999e-01 1.0000000e-01 0.0000000e+00 
0.0000000e+00 2.5999999e-01 0.0000000e+00 
2.5999999e-01 0.0000000e+00 0.0000000e+00 
1.4000000e-01 2.2000000e-01 0.0000000e+00 
2.2000000e-01 1.4000000e-01 0.0000000e+00 
2.0000000e-02 2.5999999e-01 0.0000000e+00 
2.5999999e-01 2.0000000e-02 0.0000000e+00 
3.9999999e-02 2.5999999e-01 0.0000000e+00 
2.5999999e-01 3.9999999e-02 0.0000000e+00 
5.9999999e-02 2.5999999e-01 0.0000000e+00 
2.5999999e-01 5.9999999e-02 0.0000000e+00 
2.3999999e-01 1.2000000e-01 0.0000000e+00 
1.2000000e-01 2.3999999e-01 0.0000000e+00 
1.8000001e-01 2.0000000e-01 0.0000000e+00 
2.0000000e-01 1.8000001e-01 0.0000000e+00 
2.2000000e-01 1.6000000e-01 0.0000000e+00 
7.9999998e-02 2.5999999e-01 0.0000000e+00 
2.5999999e-01 7.9999998e-02 0.0000000e+00 
1.6000000e-01 2.2000000e-01 0.0000000e+00 
2.3999999e-01 1.4000000e-01 0.0000000e+00 
1.4000000e-01 2.3999999e-01 0.0000000e+00 
1.0000000e-01 2.5999999e-01 0.0000000e+00 
2.5999999e-01 1.0000000e-01 0.0000000e+00 
2.8000000e-01 0.0000000e+00 0.0000000e+00 
0.0000000e+00 2.8000000e-01 0.0000000e+00 
2.0000000e-02 2.8000000e-01 0.0000000e+00 
2.8000000e-01 2.0000000e-02 0.0000000e+00 
2.8000000e-01 3.9999999e-02 0.0000000e+00 
3.9999999e-02 2.8000000e-01 0.0000000e+00 
2.0000000e-01 2.0000000e-01 0.0000000e+00 
1.8000001e-01 2.2000000e-01 0.0000000e+00 
2.2000000e-01 1.8000001e-01 0.0000000e+00 
2.8000000e-01 5.9999999e-02 0.0000000e+00 
2.5999999e-01 1.2000000e-01 0.0000000e+00 
1.2000000e-01 2.5999999e-01 0.0000000e+00 
5.9999999e-02 2.8000000e-01 0.0000000e+00 
2.3999999e-01 1.6000000e-01 0.0000000e+00 
1.6000000e-01 2.3999999e-01 0.0000000e+00 
7.9999998e-02 2.8000000e-01 0.0000000e+00 
2.8000000e-01 7.9999998e-02 0.0000000e+00 
1.4000000e-01 2.5999999e-01 0.0000000e+00 
2.5999999e-01 1.4000000e-01 0.0000000e+00 
2.2000000e-01 2.0000000e-01 0.0000000e+00 
1.0000000e-01 2.8000000e-01 0.0000000e+00 
2.0000000e-01 2.2000000e-01 0.0000000e+00 
2.8000000e-01 1.0000000e-01 0.0000000e+00 
1.8000001e-01 2.3999999e-01 0.0000000e+00 
3.0000001e-01 0.0000000e+00 0.0000000e+00 
2.3999999e-01 1.8000001e-01 0.0000000e+00 
0.0000000e+00 3.0000001e-01 0.0000000e+00 
3.0000001e-01 2.0000000e-02 0.0000000e+00 
2.0000000e-02 3.0000001e-01 0.0000000e+00 
3.9999999e-02 3.0000001e-01 0.0000000e+00 
3.0000001e-01 3.9999999e-02 0.0000000e+00 
1.2000000e-01 2.8000000e-01 0.0000000e+00 
2.8000000e-01 1.2000000e-01 0.0000000e+00 
1.6000000e-01 2.5999999e-01 0.0000000e+00 
2.5999999e-01 1.6000000e-01 0.0000000e+00 
5.9999999e-02 3.0000001e-01 0.0000000e+00 
3.0000001e-01 5.9999999e-02 0.0000000e+00 
7.9999998e-02 3.0000001e-01 0.0000000e+00 
3.0000001e-01 7.9999998e-02 0.0000000e+00 
2.2000000e-01 2.2000000e-01 0.0000000e+00 
2.3999999e-01 2.0000000e-01 0.0000000e+00 
2.0000000e-01 2.3999999e-01 0.0000000e+00 
1.4000000e-01 2.8000000e-01 0.0000000e+00 
2.8000000e-01 1.4000000e-01 0.0000000e+00 
1.0000000e-01 3.0000001e-01 0.0000000e+00 
2.5999999e-01 1.8000001e-01 0.0000000e+00 
1.8000001e-01 2.5999999e-01 0.0000000e+00 
3.0000001e-01 1.0000000e-01 0.0000000e+00 
0.0000000e+00 3.1999999e-01 0.0000000e+00 
3.1999999e-01 0.0000000e+00 0.0000000e+00 
2.0000000e-02 3.1999999e-01 0.0000000e+00 
3.1999999e-01 2.0000000e-02 0.0000000e+00 
3.9999999e-02 3.1999999e-01 0.0000000e+00 
1.6000000e-01 2.8000000e-01 0.0000000e+00 
3.1999999e-01 3.9999999e-02 0.0000000e+00 
2.8000000e-01 1.6000000e-01 0.0000000e+00 
1.2000000e-01 3.0000001e-01 0.0000000e+00 
3.0000001e-01 1.2000000e-01 0.0000000e+00 
2.2000000e-01 2.3999999e-01 0.0000000e+00 
5.9999999e-02 3.1999999e-01 0.0000000e+00 
2.3999999e-01 2.2000000e-01 0.0000000e+00 
3.1999999e-01 5.9999999e-02 0.0000000e+00 
2.0000000e-01 2.5999999e-01 0.0000000e+00 
2.5999999e-01 2.0000000e-01 0.0000000e+00 
[...]
POINT_DATA 2601
FIELD FieldData 1
TEMPERATURE 1 2601  float
0.0000000e+00
0.0000000e+00
3.8484752e-02
3.8342405e-02
7.6817624e-02
0.0000000e+00
7.6535650e-02
3.8225036e-02
7.6303236e-02
1.1484733e-01
0.0000000e+00
1.1442845e-01
3.7909441e-02
7.5675137e-02
1.1408345e-01
1.5242378e-01
0.0000000e+00
1.5187083e-01
3.7424065e-02
1.1314680e-01
1.5141574e-01
7.4708134e-02
1.1170345e-01
1.5017538e-01
1.8939869e-01
0.0000000e+00
1.8871468e-01
3.6774065e-02
7.3412508e-02
1.8815212e-01
1.4826247e-01
1.8661374e-01
1.0976874e-01
2.2562614e-01
0.0000000e+00
2.2481433e-01
3.5966963e-02
2.2414705e-01
7.1803264e-02
1.8423960e-01
1.4569740e-01
2.2231725e-01
1.0736512e-01
0.0000000e+00
2.6096314e-01
1.8105502e-01
3.5009347e-02
2.6002708e-01
2.1949176e-01
1.4250991e-01
6.9893546e-02
2.5925809e-01
2.5714442e-01
1.0451219e-01
2.1570076e-01
1.7709698e-01
2.9527023e-01
0.0000000e+00
2.9421383e-01
1.3872603e-01
3.3907622e-02
2.5387904e-01
2.9334635e-01
6.7696124e-02
2.1098819e-01
2.9095733e-01
1.0122905e-01
1.7239775e-01
2.4949682e-01
2.8726509e-01
1.3437107e-01
0.0000000e+00
3.2841203e-01
3.2723957e-01
3.2668103e-02
6.5223590e-02
3.2627711e-01
2.0539252e-01
2.4404852e-01
1.6698875e-01
2.8230903e-01
3.2362223e-01
9.7534508e-02
1.2946998e-01
3.1951773e-01
2.3757860e-01
1.9895113e-01
2.7614650e-01
0.0000000e+00
3.6025771e-01
3.5897389e-01
3.1297106e-02
3.5792026e-01
6.2488552e-02
1.6090097e-01
3.1400725e-01
3.5500997e-01
9.3447395e-02
2.3013018e-01
2.6882768e-01
3.5050926e-01
1.2404772e-01
3.0715460e-01
1.9170083e-01
3.9068165e-01
0.0000000e+00
3.8929147e-01
2.9801024e-02
3.8815078e-01
5.9503760e-02
1.5416537e-01
3.4446594e-01
2.6040128e-01
3.8499647e-01
8.8986762e-02
2.9901534e-01
2.2174579e-01
3.3694971e-01
1.8367851e-01
1.1812956e-01
3.8011712e-01
4.1956374e-01
0.0000000e+00
4.1807264e-01
2.8964347e-01
2.5091526e-01
2.8186407e-02
3.7356436e-01
1.4681333e-01
5.6282278e-02
4.1684932e-01
2.1246797e-01
3.2802138e-01
4.1346323e-01
8.4172137e-02
3.6541355e-01
1.7492147e-01
1.1174139e-01
4.0822414e-01
2.7909210e-01
3.1773984e-01
2.4041757e-01
1.3887702e-01
4.0118724e-01
0.0000000e+00
4.4679001e-01
2.0233980e-01
3.5573027e-01
2.6460027e-02
4.4520375e-01
5.2837614e-02
4.4390249e-01
7.9023704e-02
4.4029778e-01
3.9243305e-01
1.6546798e-01
2.6741436e-01
3.0616301e-01
3.4457791e-01
1.0491001e-01
4.3471918e-01
2.2895691e-01
3.8203150e-01
1.9140552e-01
1.3038969e-01
4.2722508e-01
4.7225299e-01
0.0000000e+00
2.4628934e-02
4.7057775e-01
4.6920347e-01
4.9183842e-02
2.9334885e-01
2.5466421e-01
3.3201879e-01
4.6539399e-01
4.1790083e-01
1.5535772e-01
7.3562488e-02
3.7005001e-01
2.1658322e-01
9.7663328e-02
4.5949733e-01
1.7971103e-01
4.0682009e-01
3.1811523e-01
1.2138608e-01
2.7935618e-01
4.5157477e-01
2.4089713e-01
4.9585223e-01
3.5655481e-01
0.0000000e+00
4.9409443e-01
2.2700487e-02
4.5335647e-02
4.9265233e-01
1.4463209e-01
4.4171569e-01
2.0334855e-01
3.9405382e-01
6.7810468e-02
4.8865277e-01
9.0030521e-02
4.8246068e-01
3.0293041e-01
3.4161186e-01
2.6424569e-01
1.6730434e-01
4.2999706e-01
1.1190248e-01
3.7967139e-01
2.2617105e-01
4.7413975e-01
0.0000000e+00
5.1749456e-01
2.0682376e-02
5.1566094e-01
4.1308384e-02
1.8930735e-01
5.1415652e-01
4.1649273e-01
1.3333443e-01
4.6378297e-01
2.8652996e-01
6.1790608e-02
3.2528836e-01
5.0998223e-01
2.4808110e-01
3.6374193e-01
8.2042098e-02
5.0351840e-01
1.5423578e-01
4.5146996e-01
4.0127459e-01
2.1054697e-01
1.0197689e-01
4.9483079e-01
3.0765319e-01
1.7451705e-01
4.3727669e-01
0.0000000e+00
5.3709453e-01
1.8582618e-02
3.4633493e-01
2.6898229e-01
5.3519225e-01
1.2151017e-01
4.8401523e-01
3.7118055e-02
5.3363115e-01
3.8441348e-01
2.3092943e-01
5.5526841e-02
5.2929819e-01
7.3729880e-02
5.2258748e-01
4.7115335e-01
1.4055820e-01
1.9408917e-01
4.2127648e-01
3.2752454e-01
2.8878182e-01
9.1648929e-02
5.1356620e-01
2.5036249e-01
3.6598229e-01
1.5903783e-01
4.5632237e-01
5.5457491e-01
0.0000000e+00
5.5261123e-01
1.6409533e-02
2.1286330e-01
1.0920668e-01
4.0354210e-01
5.0233251e-01
5.5099934e-01
3.2781273e-02
5.4652447e-01
4.9044032e-02
1.7686592e-01
4.3959656e-01
1.2632665e-01
3.0738059e-01
4.8896933e-01
6.5126918e-02
5.3959268e-01
2.6874745e-01
3.4604907e-01
2.3074606e-01
3.8414261e-01
5.3027225e-01
8.0959760e-02
4.7355428e-01
1.4293264e-01
4.2104736e-01
1.9395722e-01
5.1866299e-01
9.6473172e-02
5.6986654e-01
0.0000000e+00
5.6784916e-01
1.4171727e-02
2.8315220e-02
5.6619275e-01
3.2471246e-01
2.8600901e-01
3.6316371e-01
2.4765402e-01
5.6159329e-01
1.5894784e-01
4.2367894e-02
4.5616117e-01
5.0484818e-01
1.1159839e-01
2.1022686e-01
5.5446732e-01
4.0074918e-01
5.6267384e-02
6.9951944e-02
5.4488373e-01
4.8890492e-01
1.2626669e-01
1.7429316e-01
4.3686020e-01
3.0197442e-01
3.4061381e-01
2.6343223e-01
8.3360516e-02
5.3294325e-01
2.2555603e-01
5.8290923e-01
0.0000000e+00
3.7874299e-01
5.8084601e-01
1.1878053e-02
5.7915151e-01
2.3737578e-02
4.7090495e-01
1.4040816e-01
5.7444555e-01
3.5524879e-02
9.6432455e-02
5.1872879e-01
4.1571948e-01
1.8888262e-01
4.7186434e-02
5.6715328e-01
2.7820641e-01
3.1684220e-01
1.5395238e-01
4.5091838e-01
5.0231606e-01
1.0910702e-01
3.5525444e-01
2.3996025e-01
5.8669277e-02
5.5734390e-01
2.0263895e-01
3.9281487e-01
5.4511857e-01
6.9921024e-02
5.9365147e-01
0.0000000e+00
5.9155059e-01
9.5375786e-03
1.2132215e-01
4.8377183e-01
5.8982474e-01
1.9066447e-02
1.6680922e-01
4.2898494e-01
8.0889665e-02
5.3055948e-01
5.8503085e-01
2.9114306e-01
2.8542066e-02
2.5280169e-01
3.2969084e-01
5.7760113e-01
3.7920043e-02
3.6806831e-01
2.1532238e-01
4.6316063e-01
1.3301246e-01
9.1522418e-02
5.1373786e-01
4.7156524e-02
5.6760490e-01
4.0532118e-01
1.7896546e-01
5.5514336e-01
5.6208245e-02
1.0176704e-01
2.6624727e-01
3.0495068e-01
4.9472323e-01
1.4412165e-01
4.4054475e-01
0.0000000e+00
6.0205078e-01
7.1595460e-03
5.9992063e-01
3.4355462e-01
2.2819982e-01
5.9817040e-01
1.4320275e-02
5.4029685e-01
6.5032080e-02
5.9330779e-01
2.1447029e-02
1.9001336e-01
3.7935016e-01
2.8504811e-02
5.8577043e-01
1.1155687e-01
4.7352681e-01
7.3584706e-02
5.2313638e-01
1.5448304e-01
4.1583461e-01
5.7562757e-01
3.5459209e-02
2.7721336e-01
2.3906273e-01
3.1598628e-01
5.6298029e-01
3.5424590e-01
2.0143570e-01
4.2276479e-02
4.5039153e-01
1.2088390e-01
5.0370717e-01
8.1817530e-02
6.0807407e-01
0.0000000e+00
4.7533298e-03
1.6504736e-01
3.9140391e-01
6.0592330e-01
5.4790813e-01
4.8923228e-02
9.5177619e-03
6.0415578e-01
1.4267705e-02
5.9924412e-01
8.9696318e-02
4.8210520e-01
4.2459971e-01
1.2947899e-01
5.9162962e-01
2.4894190e-01
1.8977767e-02
2.8746238e-01
5.3047818e-01
5.5365283e-02
3.2597876e-01
2.1115534e-01
5.8138150e-01
2.3623241e-02
1.7420554e-01
3.6366352e-01
9.7086251e-02
4.5801240e-01
2.8180350e-02
6.1564926e-02
5.1073879e-01
5.6860065e-01
3.9979708e-01
1.3834365e-01
0.0000000e+00
6.1169761e-01
6.0953486e-01
2.3284042e-03
3.2626167e-02
5.5336577e-01
2.5793239e-01
6.0775751e-01
4.6778042e-03
2.2001198e-01
2.9656529e-01
6.7479163e-02
4.8874444e-01
6.0281670e-01
4.3421519e-01
1.0465179e-01
7.0322948e-03
1.8265262e-01
3.3474347e-01
9.3762055e-03
5.9515613e-01
5.3574342e-01
3.6938261e-02
3.7167203e-01
1.4633113e-01
5.8484483e-01
1.1694670e-02
4.6429053e-01
7.3005311e-02
4.0686911e-01
1.1148226e-01
4.1091837e-02
5.1577914e-01
5.7198340e-01
1.3974043e-02
0.0000000e+00
0.0000000e+00
0.0000000e+00
0.0000000e+00
1.6202385e-02
0.0000000e+00
6.1290705e-01
5.5664998e-01
3.4240231e-01
1.5383428e-01
-1.0568850e-04
6.1074120e-01
4.3993929e-01
7.8485653e-02
6.0896140e-01
-1.8057063e-04
4.5059111e-02
4.9353951e-01
-2.3081477e-04
6.0401165e-01
3.7829077e-01
1.1804266e-01
5.3891015e-01
1.8370384e-02
-2.6234752e-04
5.9633648e-01
0.0000000e+00
0.0000000e+00
4.8751716e-02
5.8600461e-01
-2.8027210e-04
0.0000000e+00
4.6880841e-01
8.4202550e-02
4.1250798e-01
0.0000000e+00
0.0000000e+00
5.1880991e-01
2.0473009e-02
5.7311636e-01
-2.8838706e-04
0.0000000e+00
0.0000000e+00
5.2345894e-02
4.4426075e-01
-2.8846771e-04
5.5774897e-01
4.9641964e-01
2.2513667e-02
6.1169761e-01
0.0000000e+00
6.0953754e-01
-2.5393679e-03
-5.0382516e-03
3.8382375e-01
8.9782923e-02
6.0776275e-01
0.0000000e+00
-7.4930820e-03
6.0282445e-01
0.0000000e+00
0.0000000e+00
-2.7822892e-04
5.3996623e-01
0.0000000e+00
5.9516627e-01
-9.9000884e-03
2.4476308e-02
4.7155750e-01
0.0000000e+00
0.0000000e+00
4.1659588e-01
5.6541931e-02
-1.2254789e-02
5.8485675e-01
5.1980984e-01
-2.4474226e-04
0.0000000e+00
0.0000000e+00
5.7199609e-01
-1.4551711e-02
4.4705915e-01
2.6382636e-02
0.0000000e+00
0.0000000e+00
0.0000000e+00
0.0000000e+00
-1.6784273e-02
5.5666071e-01
-1.3886712e-04
4.9733791e-01
0.0000000e+00
0.0000000e+00
6.0807407e-01
0.0000000e+00
-4.9630483e-03
6.0592866e-01
0.0000000e+00
6.0416639e-01
-9.8761059e-03
5.9925973e-01
-1.4725897e-02
0.0000000e+00
0.0000000e+00
5.3891301e-01
-1.8944958e-02
5.9165007e-01
2.9002307e-02
4.1925895e-01
-1.9498996e-02
4.7232354e-01
2.2202605e-04
5.8140606e-01
-2.4181399e-02
0.0000000e+00
0.0000000e+00
5.1879060e-01
-2.1025734e-02
0.0000000e+00
0.0000000e+00
5.6862766e-01
0.0000000e+00
0.0000000e+00
-2.8758427e-02
1.6099113e-03
4.4739884e-01
0.0000000e+00
0.0000000e+00
0.0000000e+00
0.0000000e+00
4.9634743e-01
-2.3028558e-02
5.5339152e-01
-3.3215154e-02
0.0000000e+00
6.0205078e-01
5.9992868e-01
-7.3671779e-03
0.0000000e+00
0.0000000e+00
-1.4675067e-02
5.9818625e-01
5.9333140e-01
5.3575903e-01
-2.1900743e-02
-3.7537623e-02
4.1945556e-01
2.6780390e-03
-2.4986170e-02
4.7135186e-01
-2.9021161e-02
0.0000000e+00
5.8580160e-01
0.0000000e+00
0.0000000e+00
0.0000000e+00
0.0000000e+00
0.0000000e+00
0.0000000e+00
-3.6012743e-02
5.7566565e-01
5.1576835e-01
-4.1716635e-02
0.0000000e+00
0.0000000e+00
-2.7395247e-02
4.4652975e-01
5.6302398e-01
-4.2851347e-02
0.0000000e+00
0.0000000e+00
4.9345502e-01
-4.5761578e-02
0.0000000e+00
0.0000000e+00
-4.9512539e-02
5.4795402e-01
0.0000000e+00
5.9365147e-01
0.0000000e+00
0.0000000e+00
5.9156132e-01
-9.7422823e-03
-1.9416226e-02
0.0000000e+00
0.0000000e+00
-2.8112035e-02
4.1842076e-01
5.8984590e-01
5.3052109e-01
-5.5973005e-02
4.6857655e-01
0.0000000e+00
0.0000000e+00
5.8506244e-01
-2.8989354e-02
-4.9704827e-02
0.0000000e+00
0.0000000e+00
-3.8429078e-02
5.7764316e-01
-6.2209819e-02
0.0000000e+00
5.1076043e-01
0.0000000e+00
-4.7702268e-02
5.6765705e-01
0.0000000e+00
0.0000000e+00
4.4363320e-01
-5.4037903e-02
-5.6775086e-02
5.5520499e-01
0.0000000e+00
0.0000000e+00
0.0000000e+00
4.8875141e-01
0.0000000e+00
-6.8220817e-02
0.0000000e+00
-6.5613121e-02
5.4036677e-01
0.0000000e+00
0.0000000e+00
4.1539279e-01
-5.6497645e-02
0.0000000e+00
5.8290923e-01
0.0000000e+00
0.0000000e+00
-1.2078999e-02
5.8085936e-01
0.0000000e+00
0.0000000e+00
5.7917792e-01
-2.4080900e-02
-7.4181154e-02
-7.3938869e-02
4.6414155e-01
5.2320945e-01
5.7448506e-01
-3.5963830e-02
0.0000000e+00
0.0000000e+00
-4.7685809e-02
5.6720603e-01
5.0379461e-01
-8.2444496e-02
0.0000000e+00
0.0000000e+00
0.0000000e+00
-5.9204280e-02
0.0000000e+00
5.5741006e-01
-7.9902053e-02
4.3970385e-01
0.0000000e+00
0.0000000e+00
0.0000000e+00
0.0000000e+00
5.4519838e-01
-7.0475891e-02
0.0000000e+00
0.0000000e+00
4.8212129e-01
-9.0355389e-02
-8.1456281e-02
0.0000000e+00
0.0000000e+00
5.3065246e-01
-8.4098868e-02
4.1149092e-01
0.0000000e+00
0.0000000e+00
5.6986654e-01
0.0000000e+00
-1.4368111e-02
4.5841867e-01
-9.7897016e-02
5.6786507e-01
5.1384532e-01
-9.2099778e-02
0.0000000e+00
0.0000000e+00
-2.8650701e-02
5.6622422e-01
0.0000000e+00
0.0000000e+00
0.0000000e+00
5.6164044e-01
-4.2796705e-02
0.0000000e+00
0.0000000e+00
5.5453044e-01
-5.6754965e-02
0.0000000e+00
0.0000000e+00
4.9483851e-01
-1.0235804e-01
0.0000000e+00
0.0000000e+00
4.3194780e-01
-1.0479132e-01
0.0000000e+00
0.0000000e+00
-7.0473790e-02
5.4496336e-01
-8.3900645e-02
5.3304011e-01
0.0000000e+00
4.7368884e-01
0.0000000e+00
-1.1217570e-01
0.0000000e+00
0.0000000e+00
-1.1156273e-01
4.0643013e-01
5.1884395e-01
-9.6981913e-02
0.0000000e+00
0.0000000e+00
0.0000000e+00
0.0000000e+00
0.0000000e+00
0.0000000e+00
4.5044935e-01
-1.2149657e-01
0.0000000e+00
5.5457491e-01
-1.6600581e-02
0.0000000e+00
0.0000000e+00
5.0245053e-01
-1.0966244e-01
5.5262959e-01
-3.3107590e-02
5.5103570e-01
-4.9461011e-02
5.4657888e-01
0.0000000e+00
0.0000000e+00
3.7700474e-01
-1.1707122e-01
-6.5600798e-02
0.0000000e+00
0.0000000e+00
5.3966558e-01
-1.2188417e-01
4.8392889e-01
4.2501462e-01
-1.3014877e-01
-8.1466444e-02
5.3036439e-01
0.0000000e+00
0.0000000e+00
0.0000000e+00
0.0000000e+00
0.0000000e+00
5.1877552e-01
-9.6996702e-02
-1.3358577e-01
4.6334478e-01
0.0000000e+00
0.0000000e+00
0.0000000e+00
0.0000000e+00
-1.3891299e-01
3.9979649e-01
0.0000000e+00
0.0000000e+00
5.0498271e-01
-1.1212936e-01
0.0000000e+00
0.0000000e+00
-1.4468414e-01
4.4073117e-01
-1.2680085e-01
4.8906368e-01
0.0000000e+00
5.3709453e-01
0.0000000e+00
0.0000000e+00
5.3521293e-01
-1.8767584e-02
-3.7433941e-02
5.3367209e-01
-1.4589493e-01
3.7076300e-01
0.0000000e+00
0.0000000e+00
5.2935946e-01
-5.5930384e-02
-1.4094555e-01
-1.5515533e-01
0.0000000e+00
0.0000000e+00
-7.4188285e-02
5.2266955e-01
4.1629875e-01
4.7109148e-01
0.0000000e+00
0.0000000e+00
0.0000000e+00
0.0000000e+00
-9.2138678e-02
5.1366985e-01
0.0000000e+00
0.0000000e+00
-1.5449448e-01
4.5113480e-01
0.0000000e+00
-1.0971206e-01
5.0245905e-01
0.0000000e+00
0.0000000e+00
0.0000000e+00
-1.6463307e-01
3.8943833e-01
0.0000000e+00
0.0000000e+00
4.8912060e-01
-1.2683818e-01
-1.6737165e-01
0.0000000e+00
0.0000000e+00
4.2925984e-01
0.0000000e+00
4.7373307e-01
-1.4344586e-01
0.0000000e+00
0.0000000e+00
0.0000000e+00
0.0000000e+00
0.0000000e+00
5.1749456e-01
-1.7433092e-01
-2.0860542e-02
3.6333463e-01
5.1568389e-01
-4.1612621e-02
0.0000000e+00
0.0000000e+00
5.1420188e-01
-6.2179185e-02
0.0000000e+00
0.0000000e+00
5.1005000e-01
-1.7951331e-01
4.0554288e-01
0.0000000e+00
0.0000000e+00
4.5637134e-01
-1.5946257e-01
-8.2483336e-02
5.0360906e-01
-1.0244801e-01
4.9494496e-01
0.0000000e+00
0.0000000e+00
-1.8216091e-01
3.3364728e-01
-1.7481293e-01
0.0000000e+00
0.0000000e+00
4.3710732e-01
4.8415419e-01
-1.2199584e-01
-1.9072755e-01
3.7990651e-01
0.0000000e+00
0.0000000e+00
0.0000000e+00
0.0000000e+00
-1.4104907e-01
0.0000000e+00
0.0000000e+00
4.7131899e-01
4.1601622e-01
-1.8942167e-01
0.0000000e+00
0.0000000e+00
0.0000000e+00
0.0000000e+00
-1.5952942e-01
-2.0224784e-01
3.5453406e-01
4.5651749e-01
0.0000000e+00
0.0000000e+00
0.0000000e+00
4.9585223e-01
0.0000000e+00
0.0000000e+00
-2.2871163e-02
4.9411952e-01
-4.5627065e-02
4.9270186e-01
-2.0318389e-01
3.9313984e-01
-6.8182603e-02
4.8872671e-01
-1.7735775e-01
4.3982491e-01
4.8255926e-01
0.0000000e+00
0.0000000e+00
-9.0452947e-02
3.2554212e-01
-2.1123952e-01
4.7426358e-01
-1.1235329e-01
0.0000000e+00
0.0000000e+00
0.0000000e+00
0.0000000e+00
0.0000000e+00
-1.9445413e-01
4.2131567e-01
-2.1611665e-01
0.0000000e+00
0.0000000e+00
3.6871356e-01
0.0000000e+00
4.6393311e-01
0.0000000e+00
-1.3379878e-01
0.0000000e+00
0.0000000e+00
-1.5470453e-01
4.5164803e-01
-2.1073364e-01
4.0106070e-01
0.0000000e+00
0.0000000e+00
0.0000000e+00
0.0000000e+00
-2.2764228e-01
3.4212938e-01
0.0000000e+00
0.0000000e+00
-1.7498559e-01
4.3748510e-01
4.7225299e-01
0.0000000e+00
4.7060487e-01
-2.4791460e-02
-4.9461320e-02
4.6925697e-01
0.0000000e+00
0.0000000e+00
-2.2611889e-01
3.7914863e-01
0.0000000e+00
0.0000000e+00
-7.3916763e-02
4.6547374e-01
0.0000000e+00
0.0000000e+00
4.2151889e-01
-1.9455695e-01
4.5960343e-01
-9.8065361e-02
0.0000000e+00
0.0000000e+00
0.0000000e+00
0.0000000e+00
-2.3958062e-01
3.1635892e-01
4.5170757e-01
-1.2181492e-01
0.0000000e+00
0.0000000e+00
-2.1333286e-01
4.0382278e-01
0.0000000e+00
0.0000000e+00
3.5558873e-01
-2.4046418e-01
4.4187596e-01
-1.4507346e-01
0.0000000e+00
0.0000000e+00
4.3018612e-01
-1.6774933e-01
2.8719512e-01
-2.4888761e-01
-2.3122768e-01
3.8447234e-01
0.0000000e+00
0.0000000e+00
3.3074301e-01
-2.5386330e-01
0.0000000e+00
0.0000000e+00
0.0000000e+00
4.1671249e-01
0.0000000e+00
0.0000000e+00
-1.8975131e-01
0.0000000e+00
0.0000000e+00
-2.4814792e-01
3.6353838e-01
0.0000000e+00
4.4679001e-01
4.4523281e-01
-2.6613779e-02
0.0000000e+00
0.0000000e+00
4.4395974e-01
-5.3100090e-02
4.0152770e-01
-2.1098863e-01
-7.9358771e-02
4.4038296e-01
0.0000000e+00
0.0000000e+00
-2.6551428e-01
3.0387509e-01
0.0000000e+00
0.0000000e+00
-1.0529015e-01
0.0000000e+00
0.0000000e+00
4.3483227e-01
3.4112358e-01
4.2736632e-01
-1.3079499e-01
-2.6401737e-01
-2.3137106e-01
3.8470408e-01
0.0000000e+00
0.0000000e+00
4.1807058e-01
0.0000000e+00
0.0000000e+00
-1.5577453e-01
0.0000000e+00
0.0000000e+00
-2.7784061e-01
2.7784118e-01
0.0000000e+00
0.0000000e+00
-2.5080797e-01
3.6631435e-01
0.0000000e+00
0.0000000e+00
4.0701920e-01
-1.8013072e-01
-2.7866280e-01
3.1722924e-01
0.0000000e+00
0.0000000e+00
0.0000000e+00
0.0000000e+00
3.9428362e-01
-2.0376633e-01
-2.6921034e-01
3.4643617e-01
0.0000000e+00
4.1956374e-01
-2.8330795e-02
4.1810349e-01
0.0000000e+00
0.0000000e+00
-2.8719670e-01
2.4888821e-01
-5.6528747e-02
4.1691008e-01
3.7993377e-01
-2.9224223e-01
2.9224172e-01
0.0000000e+00
0.0000000e+00
-2.2658527e-01
4.1355360e-01
-8.4486730e-02
0.0000000e+00
4.0834388e-01
-1.1209822e-01
0.0000000e+00
0.0000000e+00
3.2514268e-01
0.0000000e+00
0.0000000e+00
-2.8647989e-01
0.0000000e+00
0.0000000e+00
-2.4849252e-01
4.0133634e-01
-1.3925728e-01
3.6403939e-01
0.0000000e+00
0.0000000e+00
-1.6585875e-01
3.9261168e-01
0.0000000e+00
0.0000000e+00
-3.0387619e-01
2.6551434e-01
0.0000000e+00
0.0000000e+00
0.0000000e+00
3.4667146e-01
-2.6939449e-01
0.0000000e+00
3.0254591e-01
-3.0254629e-01
-1.9179846e-01
3.8224006e-01
0.0000000e+00
3.7028924e-01
0.0000000e+00
-2.1697354e-01
-2.8919789e-01
0.0000000e+00
3.2790270e-01
0.0000000e+00
-3.1636208e-01
2.3958081e-01
0.0000000e+00
0.0000000e+00
0.0000000e+00
0.0000000e+00
-3.1722996e-01
0.0000000e+00
3.9068165e-01
2.7866250e-01
3.8932398e-01
-2.9935498e-02
3.8821483e-01
0.0000000e+00
-2.4128270e-01
0.0000000e+00
-5.9733294e-02
3.5682580e-01
3.8509160e-01
-8.9279704e-02
0.0000000e+00
0.0000000e+00
-1.1846174e-01
3.8024303e-01
0.0000000e+00
0.0000000e+00
3.0781311e-01
-3.0781329e-01
3.4191617e-01
-2.6462650e-01
3.7372085e-01
-1.4716719e-01
-3.2554960e-01
2.1123873e-01
-3.3074450e-01
2.5386319e-01
0.0000000e+00
0.0000000e+00
0.0000000e+00
0.0000000e+00
-1.7528483e-01
3.6560053e-01
-3.2514301e-01
3.2562777e-01
2.8647968e-01
-2.8690749e-01
0.0000000e+00
3.5594776e-01
-2.0270473e-01
0.0000000e+00
0.0000000e+00
0.0000000e+00
0.0000000e+00
0.0000000e+00
0.0000000e+00
-2.2931862e-01
-3.4213254e-01
2.2764213e-01
3.4482613e-01
-3.3365867e-01
0.0000000e+00
0.0000000e+00
1.8216090e-01
3.0803064e-01
-3.0803072e-01
2.6401719e-01
-3.4112415e-01
0.0000000e+00
0.0000000e+00
0.0000000e+00
3.6025771e-01
0.0000000e+00
0.0000000e+00
3.5900792e-01
-3.1421158e-02
3.3229825e-01
-2.5502032e-01
-6.2700287e-02
3.5798725e-01
3.5510945e-01
-9.3717583e-02
2.8919780e-01
-3.2790282e-01
-1.2435404e-01
3.5064080e-01
0.0000000e+00
0.0000000e+00
-3.5454065e-01
2.0224720e-01
-2.7970597e-01
3.1842655e-01
0.0000000e+00
0.0000000e+00
2.4046406e-01
0.0000000e+00
0.0000000e+00
3.4462920e-01
-1.5449156e-01
-3.5558978e-01
0.0000000e+00
0.0000000e+00
3.3714437e-01
-1.8401323e-01
0.0000000e+00
0.0000000e+00
2.6921022e-01
-3.4643638e-01
0.0000000e+00
0.0000000e+00
3.0327445e-01
-3.0327448e-01
3.2824722e-01
-2.1280375e-01
0.0000000e+00
0.0000000e+00
1.7433126e-01
-3.6334354e-01
2.1611655e-01
-3.6871532e-01
-2.4074978e-01
3.1799665e-01
-3.2562780e-01
2.8690746e-01
0.0000000e+00
0.0000000e+00
0.0000000e+00
0.0000000e+00
-3.6353865e-01
2.4814783e-01
-2.6774040e-01
0.0000000e+00
3.2841203e-01
3.0645078e-01
0.0000000e+00
-3.2781269e-02
3.2727492e-01
0.0000000e+00
0.0000000e+00
3.2634667e-01
-6.5416738e-02
0.0000000e+00
0.0000000e+00
0.0000000e+00
-9.7780958e-02
-3.4667152e-01
0.0000000e+00
2.6939443e-01
3.2372546e-01
-3.7990916e-01
1.9072740e-01
-3.7077036e-01
1.4589541e-01
-1.2974933e-01
3.1965417e-01
2.2611882e-01
-3.7914899e-01
0.0000000e+00
0.0000000e+00
-2.9366761e-01
2.9366758e-01
-1.6119833e-01
3.1417644e-01
0.0000000e+00
0.0000000e+00
0.0000000e+00
0.0000000e+00
2.5080791e-01
-3.6631441e-01
-1.9200583e-01
3.0735606e-01
2.7970594e-01
-3.1842655e-01
-3.8944122e-01
1.6463323e-01
-2.2205144e-01
2.9924858e-01
0.0000000e+00
0.0000000e+00
-3.9314008e-01
2.0318383e-01
1.1707086e-01
-3.7700951e-01