# vtk DataFile Version 4.0
vtk output
ASCII
DATASET UNSTRUCTURED_GRID
POINTS 2601 float
0.0000000e+00 0.0000000e+00 0.0000000e+00 
0.0000000e+00 2.0000000e-02 0.0000000e+00 
2.0000000e-02 0.0000000e+00 0.0000000e+00 
2.0000000e-02 2.0000000e-02 0.0000000e+00 
3.9999999e-02 0.0000000e+00 0.0000000e+00 
0.0000000e+00 3.9999999e-02 0.0000000e+00 
3.9999999e-02 2.0000000e-02 0.0000000e+00 
2.0000000e-02 3.9999999e-02 0.0000000e+00 
3.9999999e-02 3.9999999e-02 0.0000000e+00 
5.9999999e-02 0.0000000e+00 0.0000000e+00 
0.0000000e+00 5.9999999e-02 0.0000000e+00 
5.9999999e-02 2.0000000e-02 0.0000000e+00 
2.0000000e-02 5.9999999e-02 0.0000000e+00 
3.9999999e-02 5.9999999e-02 0.0000000e+00 
5.9999999e-02 3.9999999e-02 0.0000000e+00 
7.9999998e-02 0.0000000e+00 0.0000000e+00 
0.0000000e+00 7.9999998e-02 0.0000000e+00 
7.9999998e-02 2.0000000e-02 0.0000000e+00 
2.0000000e-02 7.9999998e-02 0.0000000e+00 
5.9999999e-02 5.9999999e-02 0.0000000e+00 
7.9999998e-02 3.9999999e-02 0.0000000e+00 
3.9999999e-02 7.9999998e-02 0.0000000e+00 
5.9999999e-02 7.9999998e-02 0.0000000e+00 
7.9999998e-02 5.9999999e-02 0.0000000e+00 
1.0000000e-01 0.0000000e+00 0.0000000e+00 
0.0000000e+00 1.0000000e-01 0.0000000e+00 
1.0000000e-01 2.0000000e-02 0.0000000e+00 
2.0000000e-02 1.0000000e-01 0.0000000e+00 
3.9999999e-02 1.0000000e-01 0.0000000e+00 
1.0000000e-01 3.9999999e-02 0.0000000e+00 
7.9999998e-02 7.9999998e-02 0.0000000e+00 
1.0000000e-01 5.9999999e-02 0.0000000e+00 
5.9999999e-02 1.0000000e-01 0.0000000e+00 
1.2000000e-01 0.0000000e+00 0.0000000e+00 
0.0000000e+00 1.2000000e-01 0.0000000e+00 
1.2000000e-01 2.0000000e-02 0.0000000e+00 
2.0000000e-02 1.2000000e-01 0.0000000e+00 
1.2000000e-01 3.9999999e-02 0.0000000e+00 
3.9999999e-02 1.2000000e-01 0.0000000e+00 
1.0000000e-01 7.9999998e-02 0.0000000e+00 
7.9999998e-02 1.0000000e-01 0.0000000e+00 
1.2000000e-01 5.9999999e-02 0.0000000e+00 
5.9999999e-02 1.2000000e-01 0.0000000e+00 
0.0000000e+00 1.4000000e-01 0.0000000e+00 
1.4000000e-01 0.0000000e+00 0.0000000e+00 
1.0000000e-01 1.0000000e-01 0.0000000e+00 
2.0000000e-02 1.4000000e-01 0.0000000e+00 
1.4000000e-01 2.0000000e-02 0.0000000e+00 
1.2000000e-01 7.9999998e-02 0.0000000e+00 
7.9999998e-02 1.2000000e-01 0.0000000e+00 
3.9999999e-02 1.4000000e-01 0.0000000e+00 
1.4000000e-01 3.9999999e-02 0.0000000e+00 
1.4000000e-01 5.9999999e-02 0.0000000e+00 
5.9999999e-02 1.4000000e-01 0.0000000e+00 
1.2000000e-01 1.0000000e-01 0.0000000e+00 
1.0000000e-01 1.2000000e-01 0.0000000e+00 
1.6000000e-01 0.0000000e+00 0.0000000e+00 
0.0000000e+00 1.6000000e-01 0.0000000e+00 
1.6000000e-01 2.0000000e-02 0.0000000e+00 
7.9999998e-02 1.4000000e-01 0.0000000e+00 
2.0000000e-02 1.6000000e-01 0.0000000e+00 
1.4000000e-01 7.9999998e-02 0.0000000e+00 
1.6000000e-01 3.9999999e-02 0.0000000e+00 
3.9999999e-02 1.6000000e-01 0.0000000e+00 
1.2000000e-01 1.2000000e-01 0.0000000e+00 
1.6000000e-01 5.9999999e-02 0.0000000e+00 
5.9999999e-02 1.6000000e-01 0.0000000e+00 
1.0000000e-01 1.4000000e-01 0.0000000e+00 
1.4000000e-01 1.0000000e-01 0.0000000e+00 
1.6000000e-01 7.9999998e-02 0.0000000e+00 
7.9999998e-02 1.6000000e-01 0.0000000e+00 
0.0000000e+00 1.8000001e-01 0.0000000e+00 
1.8000001e-01 0.0000000e+00 0.0000000e+00 
1.8000001e-01 2.0000000e-02 0.0000000e+00 
2.0000000e-02 1.8000001e-01 0.0000000e+00 
3.9999999e-02 1.8000001e-01 0.0000000e+00 
1.8000001e-01 3.9999999e-02 0.0000000e+00 
1.2000000e-01 1.4000000e-01 0.0000000e+00 
1.4000000e-01 1.2000000e-01 0.0000000e+00 
1.0000000e-01 1.6000000e-01 0.0000000e+00 
1.6000000e-01 1.0000000e-01 0.0000000e+00 
1.8000001e-01 5.9999999e-02 0.0000000e+00 
5.9999999e-02 1.8000001e-01 0.0000000e+00 
7.9999998e-02 1.8000001e-01 0.0000000e+00 
1.8000001e-01 7.9999998e-02 0.0000000e+00 
1.4000000e-01 1.4000000e-01 0.0000000e+00 
1.2000000e-01 1.6000000e-01 0.0000000e+00 
1.6000000e-01 1.2000000e-01 0.0000000e+00 
0.0000000e+00 2.0000000e-01 0.0000000e+00 
2.0000000e-01 0.0000000e+00 0.0000000e+00 
2.0000000e-01 2.0000000e-02 0.0000000e+00 
2.0000000e-02 2.0000000e-01 0.0000000e+00 
2.0000000e-01 3.9999999e-02 0.0000000e+00 
3.9999999e-02 2.0000000e-01 0.0000000e+00 
1.0000000e-01 1.8000001e-01 0.0000000e+00 
1.8000001e-01 1.0000000e-01 0.0000000e+00 
2.0000000e-01 5.9999999e-02 0.0000000e+00 
5.9999999e-02 2.0000000e-01 0.0000000e+00 
1.4000000e-01 1.6000000e-01 0.0000000e+00 
1.6000000e-01 1.4000000e-01 0.0000000e+00 
2.0000000e-01 7.9999998e-02 0.0000000e+00 
7.9999998e-02 2.0000000e-01 0.0000000e+00 
1.8000001e-01 1.2000000e-01 0.0000000e+00 
1.2000000e-01 1.8000001e-01 0.0000000e+00 
2.2000000e-01 0.0000000e+00 0.0000000e+00 
0.0000000e+00 2.2000000e-01 0.0000000e+00 
2.2000000e-01 2.0000000e-02 0.0000000e+00 
2.0000000e-02 2.2000000e-01 0.0000000e+00 
2.2000000e-01 3.9999999e-02 0.0000000e+00 
3.9999999e-02 2.2000000e-01 0.0000000e+00 
1.0000000e-01 2.0000000e-01 0.0000000e+00 
2.0000000e-01 1.0000000e-01 0.0000000e+00 
1.6000000e-01 1.6000000e-01 0.0000000e+00 
2.2000000e-01 5.9999999e-02 0.0000000e+00 
5.9999999e-02 2.2000000e-01 0.0000000e+00 
1.8000001e-01 1.4000000e-01 0.0000000e+00 
1.4000000e-01 1.8000001e-01 0.0000000e+00 
2.0000000e-01 1.2000000e-01 0.0000000e+00 
1.2000000e-01 2.0000000e-01 0.0000000e+00 
7.9999998e-02 2.2000000e-01 0.0000000e+00 
2.2000000e-01 7.9999998e-02 0.0000000e+00 
2.3999999e-01 0.0000000e+00 0.0000000e+00 
0.0000000e+00 2.3999999e-01 0.0000000e+00 
2.3999999e-01 2.0000000e-02 0.0000000e+00 
1.8000001e-01 1.6000000e-01 0.0000000e+00 
1.6000000e-01 1.8000001e-01 0.0000000e+00 
2.0000000e-02 2.3999999e-01 0.0000000e+00 
2.2000000e-01 1.0000000e-01 0.0000000e+00 
1.0000000e-01 2.2000000e-01 0.0000000e+00 
3.9999999e-02 2.3999999e-01 0.0000000e+00 
2.3999999e-01 3.9999999e-02 0.0000000e+00 
1.4000000e-01 2.0000000e-01 0.0000000e+00 
2.0000000e-01 1.4000000e-01 0.0000000e+00 
2.3999999e-01 5.9999999e-02 0.0000000e+00 
5.9999999e-02 2.3999999e-01 0.0000000e+00 
2.2000000e-01 1.2000000e-01 0.0000000e+00 
1.2000000e-01 2.2000000e-01 0.0000000e+00 
7.9999998e-02 2.3999999e-01 0.0000000e+00 
2.3999999e-01 7.9999998e-02 0.0000000e+00 
1.8000001e-01 1.8000001e-01 0.0000000e+00 
2.0000000e-01 1.6000000e-01 0.0000000e+00 
1.6000000e-01 2.0000000e-01 0.0000000e+00 
1.0000000e-01 2.3999999e-01 0.0000000e+00 
2.3999999e-01 1.0000000e-01 0.0000000e+00 
0.0000000e+00 2.5999999e-01 0.0000000e+00 
2.5999999e-01 0.0000000e+00 0.0000000e+00 
1.4000000e-01 2.2000000e-01 0.0000000e+00 
2.2000000e-01 1.4000000e-01 0.0000000e+00 
2.0000000e-02 2.5999999e-01 0.0000000e+00 
2.5999999e-01 2.0000000e-02 0.0000000e+00 
3.9999999e-02 2.5999999e-01 0.0000000e+00 
2.5999999e-01 3.9999999e-02 0.0000000e+00 
5.9999999e-02 2.5999999e-01 0.0000000e+00 
2.5999999e-01 5.9999999e-02 0.0000000e+00 
2.3999999e-01 1.2000000e-01 0.0000000e+00 
1.2000000e-01 2.3999999e-01 0.0000000e+00 
1.8000001e-01 2.0000000e-01 0.0000000e+00 
2.0000000e-01 1.8000001e-01 0.0000000e+00 
2.2000000e-01 1.6000000e-01 0.0000000e+00 
7.9999998e-02 2.5999999e-01 0.0000000e+00 
2.5999999e-01 7.9999998e-02 0.0000000e+00 
1.6000000e-01 2.2000000e-01 0.0000000e+00 
2.3999999e-01 1.4000000e-01 0.0000000e+00 
1.4000000e-01 2.3999999e-01 0.0000000e+00 
1.0000000e-01 2.5999999e-01 0.0000000e+00 
2.5999999e-01 1.0000000e-01 0.0000000e+00 
2.8000000e-01 0.0000000e+00 0.0000000e+00 
0.0000000e+00 2.8000000e-01 0.0000000e+00 
2.0000000e-02 2.8000000e-01 0.0000000e+00 
2.8000000e-01 2.0000000e-02 0.0000000e+00 
2.8000000e-01 3.9999999e-02 0.0000000e+00 
3.9999999e-02 2.8000000e-01 0.0000000e+00 
2.0000000e-01 2.0000000e-01 0.0000000e+00 
1.8000001e-01 2.2000000e-01 0.0000000e+00 
2.2000000e-01 1.8000001e-01 0.0000000e+00 
2.8000000e-01 5.9999999e-02 0.0000000e+00 
2.5999999e-01 1.2000000e-01 0.0000000e+00 
1.2000000e-01 2.5999999e-01 0.0000000e+00 
5.9999999e-02 2.8000000e-01 0.0000000e+00 
2.3999999e-01 1.6000000e-01 0.0000000e+00 
1.6000000e-01 2.3999999e-01 0.0000000e+00 
7.9999998e-02 2.8000000e-01 0.0000000e+00 
2.8000000e-01 7.9999998e-02 0.0000000e+00 
1.4000000e-01 2.5999999e-01 0.0000000e+00 
2.5999999e-01 1.4000000e-01 0.0000000e+00 
2.2000000e-01 2.0000000e-01 0.0000000e+00 
1.0000000e-01 2.8000000e-01 0.0000000e+00 
2.0000000e-01 2.2000000e-01 0.0000000e+00 
2.8000000e-01 1.0000000e-01 0.0000000e+00 
1.8000001e-01 2.3999999e-01 0.0000000e+00 
3.0000001e-01 0.0000000e+00 0.0000000e+00 
2.3999999e-01 1.8000001e-01 0.0000000e+00 
0.0000000e+00 3.0000001e-01 0.0000000e+00 
3.0000001e-01 2.0000000e-02 0.0000000e+00 
2.0000000e-02 3.0000001e-01 0.0000000e+00 
3.9999999e-02 3.0000001e-01 0.0000000e+00 
3.0000001e-01 3.9999999e-02 0.0000000e+00 
1.2000000e-01 2.8000000e-01 0.0000000e+00 
2.8000000e-01 1.2000000e-01 0.0000000e+00 
1.6000000e-01 2.5999999e-01 0.0000000e+00 
2.5999999e-01 1.6000000e-01 0.0000000e+00 
5.9999999e-02 3.0000001e-01 0.0000000e+00 
3.0000001e-01 5.9999999e-02 0.0000000e+00 
7.9999998e-02 3.0000001e-01 0.0000000e+00 
3.0000001e-01 7.9999998e-02 0.0000000e+00 
2.2000000e-01 2.2000000e-01 0.0000000e+00 
2.3999999e-01 2.0000000e-01 0.0000000e+00 
2.0000000e-01 2.3999999e-01 0.0000000e+00 
1.4000000e-01 2.8000000e-01 0.0000000e+00 
2.8000000e-01 1.4000000e-01 0.0000000e+00 
1.0000000e-01 3.0000001e-01 0.0000000e+00 
2.5999999e-01 1.8000001e-01 0.0000000e+00 
1.8000001e-01 2.5999999e-01 0.0000000e+00 
3.0000001e-01 1.0000000e-01 0.0000000e+00 
0.0000000e+00 3.1999999e-01 0.0000000e+00 
3.1999999e-01 0.0000000e+00 0.0000000e+00 
2.0000000e-02 3.1999999e-01 0.0000000e+00 
3.1999999e-01 2.0000000e-02 0.0000000e+00 
3.9999999e-02 3.1999999e-01 0.0000000e+00 
1.6000000e-01 2.8000000e-01 0.0000000e+00 
3.1999999e-01 3.9999999e-02 0.0000000e+00 
2.8000000e-01 1.6000000e-01 0.0000000e+00 
1.2000000e-01 3.0000001e-01 0.0000000e+00 
3.0000001e-01 1.2000000e-01 0.0000000e+00 
2.2000000e-01 2.3999999e-01 0.0000000e+00 
5.9999999e-02 3.1999999e-01 0.0000000e+00 
2.3999999e-01 2.2000000e-01 0.0000000e+00 
3.1999999e-01 5.9999999e-02 0.0000000e+00 
2.0000000e-01 2.5999999e-01 0.0000000e+00 
2.5999999e-01 2.0000000e-01 0.0000000e+00 
[...]
POINT_DATA 2601
FIELD FieldData 1
TEMPERATURE 1 2601  float
-0.0000000e+00
0.0000000e+00
-4.3696728e-02
-4.4128317e-02
-8.7221004e-02
0.0000000e+00
-8.8082477e-02
-4.4113863e-02
-8.8053435e-02
-1.3040106e-01
0.0000000e+00
-1.3169010e-01
-4.3873202e-02
-8.7572850e-02
-1.3164759e-01
-1.7306648e-01
0.0000000e+00
-1.7478003e-01
-4.3400932e-02
-1.3092989e-01
-1.7472616e-01
-8.6629905e-02
-1.2952080e-01
-1.7377605e-01
-2.1504888e-01
0.0000000e+00
-2.1718296e-01
-4.2711861e-02
-8.5254155e-02
-2.1712068e-01
-1.7190811e-01
-2.1594448e-01
-1.2746450e-01
-2.5618258e-01
0.0000000e+00
-2.5873214e-01
-4.1818280e-02
-2.5866494e-01
-8.3470114e-02
-2.1362743e-01
-1.6918087e-01
-2.5727040e-01
-1.2479759e-01
0.0000000e+00
-2.9630527e-01
-2.1024212e-01
-4.0732715e-02
-2.9926392e-01
-2.5451621e-01
-1.6564286e-01
-8.1302784e-02
-2.9919574e-01
-2.9759175e-01
-1.2155739e-01
-2.5048864e-01
-2.0584871e-01
-3.3525854e-01
0.0000000e+00
-3.3861858e-01
-1.6134353e-01
-3.9467160e-02
-2.9441431e-01
-3.3855340e-01
-7.8776091e-02
-2.4525914e-01
-3.3674976e-01
-1.1777966e-01
-2.0050851e-01
-2.8976294e-01
-3.3316469e-01
-1.5633023e-01
0.0000000e+00
-3.7288871e-01
-3.7664074e-01
-3.8032953e-02
-7.5912654e-02
-3.7658256e-01
-2.3890041e-01
-2.8371984e-01
-1.9428013e-01
-3.2791021e-01
-3.7458974e-01
-1.1349815e-01
-1.5064768e-01
-3.7061390e-01
-2.7636874e-01
-2.3148213e-01
-3.2107890e-01
0.0000000e+00
-4.0904728e-01
-4.1318014e-01
-3.6440719e-02
-4.1313261e-01
-7.2733685e-02
-1.8721905e-01
-3.6477906e-01
-4.1096151e-01
-1.0874455e-01
-2.6778984e-01
-3.1276488e-01
-4.0661290e-01
-1.4433788e-01
-3.5718730e-01
-2.2307006e-01
-4.4359151e-01
0.0000000e+00
-4.4809219e-01
-3.4700464e-02
-4.4805852e-01
-6.9259129e-02
-1.7937732e-01
-4.0022197e-01
-3.0305824e-01
-4.4572014e-01
-1.0354868e-01
-3.4794262e-01
-2.5805879e-01
-3.9189970e-01
-2.1372603e-01
-1.3744034e-01
-4.4101760e-01
-4.7638509e-01
0.0000000e+00
-4.8123851e-01
-3.3714429e-01
-2.9204410e-01
-3.2821663e-02
-4.3409622e-01
-1.7080401e-01
-6.5507926e-02
-4.8122129e-01
-2.4724685e-01
-3.8175899e-01
-4.7872666e-01
-9.7938858e-02
-4.2507499e-01
-2.0350847e-01
-1.2999269e-01
-4.7368950e-01
-3.2488620e-01
-3.6990753e-01
-2.7980265e-01
-1.6154590e-01
-4.6626437e-01
0.0000000e+00
-5.0729859e-01
-2.3542146e-01
-4.1407484e-01
-3.0813433e-02
-5.1248771e-01
-6.1498281e-02
-5.1248860e-01
-9.1942340e-02
-5.0984865e-01
-4.5657721e-01
-1.9247313e-01
-3.1125686e-01
-3.5644713e-01
-4.0121084e-01
-1.2203121e-01
-5.0449663e-01
-2.6641002e-01
-4.4475582e-01
-2.2264728e-01
-1.5164821e-01
-4.9659526e-01
-5.3621000e-01
0.0000000e+00
-2.8684692e-02
-5.4171556e-01
-5.4173565e-01
-5.7248022e-02
-3.4147397e-01
-2.9634064e-01
-3.8659176e-01
-5.3896087e-01
-4.8627636e-01
-1.8067418e-01
-8.5585847e-02
-4.3092152e-01
-2.5193951e-01
-1.1359148e-01
-5.3331405e-01
-2.0898736e-01
-4.7367328e-01
-3.7032041e-01
-1.4115542e-01
-3.2508001e-01
-5.2496475e-01
-2.8021938e-01
-5.6300527e-01
-4.1518879e-01
0.0000000e+00
-5.6880611e-01
-2.6444294e-02
-5.2774854e-02
-5.6884533e-01
-1.6816507e-01
-5.1404935e-01
-2.3646314e-01
-4.5891234e-01
-7.8895956e-02
-5.6594604e-01
-1.0470897e-01
-5.6002474e-01
-3.5249561e-01
-3.9766592e-01
-3.0735520e-01
-1.9450429e-01
-5.0070560e-01
-1.3011201e-01
-4.4211221e-01
-2.6297405e-01
-5.5125654e-01
0.0000000e+00
-5.8757859e-01
-2.4101159e-02
-5.9365153e-01
-4.8096638e-02
-2.2005302e-01
-5.9370923e-01
-4.8506299e-01
-1.5499942e-01
-5.3978121e-01
-3.3321479e-01
-7.1899474e-02
-3.7845722e-01
-5.9069544e-01
-2.8838968e-01
-4.2338490e-01
-9.5419519e-02
-5.8452034e-01
-1.7926121e-01
-5.2573907e-01
-4.6724272e-01
-2.4468672e-01
-1.1856294e-01
-5.7536322e-01
-3.5766751e-01
-2.0278223e-01
-5.0926137e-01
0.0000000e+00
-6.0983306e-01
-2.1664383e-02
-4.0283948e-01
-3.1257772e-01
-6.1615324e-01
-1.4123158e-01
-5.6336582e-01
-4.3231569e-02
-6.1622787e-01
-4.4735923e-01
-2.6827636e-01
-6.4623743e-02
-6.1310959e-01
-8.5759655e-02
-6.0670191e-01
-5.4866958e-01
-1.6332220e-01
-2.2544156e-01
-4.9047014e-01
-3.8058397e-01
-3.3540323e-01
-1.0655407e-01
-5.9718704e-01
-2.9068723e-01
-4.2552224e-01
-1.8472546e-01
-5.3140557e-01
-6.2968075e-01
0.0000000e+00
-6.3622183e-01
-1.9143300e-02
-2.4711105e-01
-1.2691697e-01
-4.6947905e-01
-5.8470732e-01
-6.3631147e-01
-3.8198330e-02
-6.3309872e-01
-5.7096805e-02
-2.0532480e-01
-5.1169443e-01
-1.4675272e-01
-3.5673997e-01
-5.6940353e-01
-7.5766869e-02
-6.2648052e-01
-3.1178567e-01
-4.0184879e-01
-2.6765731e-01
-4.4640082e-01
-6.1664069e-01
-9.4132438e-02
-5.5140483e-01
-1.6595885e-01
-4.8964876e-01
-2.2499545e-01
-6.0372072e-01
-1.1211239e-01
-6.4704335e-01
0.0000000e+00
-6.5377778e-01
-1.6547523e-02
-3.3016153e-02
-6.5388006e-01
-3.7644285e-01
-3.3141702e-01
-4.2133671e-01
-2.8692806e-01
-6.5058321e-01
-1.8442483e-01
-4.9347539e-02
-5.3082860e-01
-5.8785933e-01
-1.2961958e-01
-2.4359883e-01
-6.4377767e-01
-4.6537292e-01
-6.5479696e-02
-8.1346333e-02
-6.3364780e-01
-5.6918162e-01
-1.4655970e-01
-2.0203036e-01
-5.0778335e-01
-3.4951454e-01
-3.9446658e-01
-3.0482152e-01
-9.6875988e-02
-6.2033308e-01
-2.6100609e-01
-6.6185242e-01
0.0000000e+00
-4.3899941e-01
-6.6875154e-01
-1.3886966e-02
-6.6886413e-01
-2.7704848e-02
-5.4779941e-01
-1.6283014e-01
-6.6549414e-01
-4.1405641e-02
-1.1199106e-01
-6.0396862e-01
-4.8237300e-01
-2.1864466e-01
-5.4937731e-02
-6.5852594e-01
-3.2099199e-01
-3.6570728e-01
-1.7831707e-01
-5.2381277e-01
-5.8467281e-01
-1.2660643e-01
-4.1050634e-01
-2.7694535e-01
-6.8245277e-02
-6.4814353e-01
-2.3410322e-01
-4.5469114e-01
-6.3448370e-01
-8.1267357e-02
-6.7404944e-01
0.0000000e+00
-6.8108404e-01
-1.1171826e-02
-1.4062864e-01
-5.6255001e-01
-6.8120456e-01
-2.2284787e-02
-1.9290856e-01
-4.9734429e-01
-9.3936823e-02
-6.1767632e-01
-6.7777312e-01
-3.3595288e-01
-3.3301596e-02
-2.9168186e-01
-3.8060841e-01
-6.7066866e-01
-4.4181518e-02
-4.2494825e-01
-2.4833377e-01
-5.3768891e-01
-1.5395556e-01
-1.0617931e-01
-5.9783345e-01
-5.4879852e-02
-6.6007423e-01
-4.6837586e-01
-2.0640740e-01
-6.4612359e-01
-6.5347128e-02
-1.1790990e-01
-3.0304956e-01
-3.4714970e-01
-5.7504028e-01
-1.6646367e-01
-5.1017225e-01
0.0000000e+00
-6.8358624e-01
-8.4125688e-03
-6.9072664e-01
-3.9130291e-01
-2.5979215e-01
-6.9085300e-01
-1.6776849e-02
-6.2894177e-01
-7.5528070e-02
-6.8737262e-01
-2.5066586e-02
-2.1894479e-01
-4.3763816e-01
-3.3252381e-02
-6.8015993e-01
-1.2904452e-01
-5.4940587e-01
-8.5359424e-02
-6.0863024e-01
-1.7810795e-01
-4.8021972e-01
-6.6939700e-01
-4.1301340e-02
-3.1484297e-01
-2.7166212e-01
-3.5911617e-01
-6.5521467e-01
-4.0286103e-01
-2.2903131e-01
-4.9176525e-02
-5.2083206e-01
-1.3943936e-01
-5.8527434e-01
-9.4770700e-02
-6.9042534e-01
0.0000000e+00
-5.6199036e-03
-1.8780291e-01
-4.4577605e-01
-6.9764149e-01
-6.3773370e-01
-5.6835957e-02
-1.1202361e-02
-6.9777179e-01
-1.6732380e-02
-6.9425583e-01
-1.0366304e-01
-5.5886799e-01
-4.9013454e-01
-1.4918171e-01
-6.8696451e-01
-2.8236604e-01
-2.2192221e-02
-3.2598394e-01
-6.1705071e-01
-6.4230859e-02
-3.6971167e-01
-2.3962094e-01
-6.7607898e-01
-2.7561340e-02
-1.9784519e-01
-4.1292617e-01
-1.1201027e-01
-5.2969092e-01
-3.2816269e-02
-7.1302272e-02
-5.9323728e-01
-6.6172779e-01
-4.5477948e-01
-1.5726084e-01
0.0000000e+00
-6.9453955e-01
-7.0180148e-01
-2.8047557e-03
-3.7930243e-02
-6.4402872e-01
-2.9174212e-01
-7.0193416e-01
-5.5830711e-03
-2.4910061e-01
-3.3554617e-01
-7.7969931e-02
-5.6630909e-01
-6.9839668e-01
-4.9508834e-01
-1.1909208e-01
-8.3313053e-03
-2.0699726e-01
-3.7891516e-01
-1.1043505e-02
-6.9105756e-01
-6.2307447e-01
-4.2872109e-02
-4.2136717e-01
-1.6599967e-01
-6.8009716e-01
-1.3711696e-02
-5.3643912e-01
-8.4154442e-02
-4.6229818e-01
-1.2661938e-01
-4.7604319e-02
-5.9893638e-01
-6.6564256e-01
-1.6326288e-02
0.0000000e+00
0.0000000e+00
0.0000000e+00
0.0000000e+00
-1.8876681e-02
0.0000000e+00
-6.9591278e-01
-6.4780921e-01
-3.8682672e-01
-1.7411546e-01
2.1752010e-05
-7.0319033e-01
-5.0121188e-01
-8.9275986e-02
-7.0332414e-01
5.8878541e-05
-5.2069385e-02
-5.7162702e-01
1.0371887e-04
-6.9977957e-01
-4.2825502e-01
-1.3376138e-01
-6.2668699e-01
-2.1352353e-02
1.5052698e-04
-6.9242442e-01
0.0000000e+00
0.0000000e+00
-5.6198612e-02
-6.8143857e-01
1.9491663e-04
0.0000000e+00
-5.4136777e-01
-9.5553130e-02
-4.6823093e-01
0.0000000e+00
0.0000000e+00
-6.0234439e-01
-2.3744805e-02
-6.6694802e-01
2.3309325e-04
0.0000000e+00
0.0000000e+00
-5.9524458e-02
-5.0574577e-01
2.6055376e-04
-6.4906663e-01
-5.7479823e-01
-2.6046099e-02
-6.9453955e-01
0.0000000e+00
-7.0180267e-01
2.8483451e-03
5.7010143e-03
-4.3395385e-01
-1.0162000e-01
-7.0193648e-01
0.0000000e+00
8.5391821e-03
-6.9839978e-01
0.0000000e+00
0.0000000e+00
2.6928284e-04
-6.2788111e-01
0.0000000e+00
-6.9106096e-01
1.1345623e-02
-2.8243832e-02
-5.4429555e-01
0.0000000e+00
0.0000000e+00
-4.7239876e-01
-6.4112917e-02
1.4104029e-02
-6.8009979e-01
-6.0345310e-01
2.3963531e-04
0.0000000e+00
0.0000000e+00
-6.6564250e-01
1.6798230e-02
-5.0856745e-01
-2.9995553e-02
0.0000000e+00
0.0000000e+00
0.0000000e+00
0.0000000e+00
1.9411353e-02
-6.4780265e-01
1.1378947e-04
-5.7577938e-01
0.0000000e+00
0.0000000e+00
-6.9042534e-01
0.0000000e+00
5.6636762e-03
-6.9764411e-01
0.0000000e+00
-6.9777685e-01
1.1320680e-02
-6.9426286e-01
1.6941190e-02
0.0000000e+00
0.0000000e+00
-6.2666565e-01
2.1924995e-02
-6.8697274e-01
-3.2841735e-02
-4.7500625e-01
2.2496702e-02
-5.4503411e-01
-3.1257846e-04
-6.7608678e-01
2.7959269e-02
0.0000000e+00
0.0000000e+00
-6.0229164e-01
2.4320249e-02
0.0000000e+00
0.0000000e+00
-6.6173249e-01
0.0000000e+00
0.0000000e+00
3.3300713e-02
-1.8270368e-03
-5.0862527e-01
0.0000000e+00
0.0000000e+00
0.0000000e+00
0.0000000e+00
-5.7467467e-01
2.6582515e-02
-6.4402497e-01
3.8492039e-02
0.0000000e+00
-6.8358624e-01
-6.9073099e-01
8.4564444e-03
0.0000000e+00
0.0000000e+00
1.6895300e-02
-6.9086146e-01
-6.8738490e-01
-6.2305194e-01
2.5275916e-02
4.3503743e-02
-4.7490522e-01
-2.9650792e-03
2.8767148e-02
-5.4401612e-01
3.3558693e-02
0.0000000e+00
-6.8017519e-01
0.0000000e+00
0.0000000e+00
0.0000000e+00
0.0000000e+00
0.0000000e+00
0.0000000e+00
4.1704152e-02
-6.6941404e-01
-5.9887171e-01
4.8308570e-02
0.0000000e+00
0.0000000e+00
3.1075330e-02
-5.0791752e-01
-6.5523130e-01
4.9671963e-02
0.0000000e+00
0.0000000e+00
-5.7148051e-01
5.2888975e-02
0.0000000e+00
0.0000000e+00
5.7420123e-02
-6.3774645e-01
0.0000000e+00
-6.7404944e-01
0.0000000e+00
0.0000000e+00
-6.8109053e-01
1.1215516e-02
2.2402637e-02
0.0000000e+00
0.0000000e+00
3.1892575e-02
-4.7414142e-01
-6.8121731e-01
-6.1705160e-01
6.4903952e-02
-5.4103011e-01
0.0000000e+00
0.0000000e+00
-6.7779201e-01
3.3510100e-02
5.7288755e-02
0.0000000e+00
0.0000000e+00
4.4487402e-02
-6.7069334e-01
7.2078370e-02
0.0000000e+00
-5.9321880e-01
0.0000000e+00
5.5283718e-02
-6.6010427e-01
0.0000000e+00
0.0000000e+00
-5.0506967e-01
6.1340347e-02
6.5846637e-02
-6.4615858e-01
0.0000000e+00
0.0000000e+00
0.0000000e+00
-5.6622088e-01
0.0000000e+00
7.8883342e-02
0.0000000e+00
7.6120712e-02
-6.2898093e-01
0.0000000e+00
0.0000000e+00
-4.7135961e-01
6.4089373e-02
0.0000000e+00
-6.6185242e-01
0.0000000e+00
0.0000000e+00
1.3930028e-02
-6.6876048e-01
0.0000000e+00
0.0000000e+00
-6.6888189e-01
2.7821014e-02
8.6045943e-02
8.5317403e-02
-5.3630626e-01
-6.0867584e-01
-6.6552091e-01
4.1611347e-02
0.0000000e+00
0.0000000e+00
5.5239949e-02
-6.5856189e-01
-5.8531791e-01
9.5553651e-02
0.0000000e+00
0.0000000e+00
0.0000000e+00
6.8645015e-02
0.0000000e+00
-6.4818925e-01
9.0802968e-02
-5.0070286e-01
0.0000000e+00
0.0000000e+00
0.0000000e+00
0.0000000e+00
-6.3454038e-01
8.1762560e-02
0.0000000e+00
0.0000000e+00
-5.5900407e-01
1.0457031e-01
9.4524607e-02
0.0000000e+00
0.0000000e+00
-6.1774659e-01
9.5486671e-02
-4.6725026e-01
0.0000000e+00
0.0000000e+00
-6.4704335e-01
0.0000000e+00
1.6589440e-02
-5.2962232e-01
1.1295550e-01
-6.5378940e-01
-5.9792089e-01
1.0685685e-01
0.0000000e+00
0.0000000e+00
3.3129405e-02
-6.5390342e-01
0.0000000e+00
0.0000000e+00
0.0000000e+00
-6.5061867e-01
4.9548283e-02
0.0000000e+00
0.0000000e+00
-6.4382601e-01
6.5774821e-02
0.0000000e+00
0.0000000e+00
-5.7516021e-01
1.1867543e-01
0.0000000e+00
0.0000000e+00
-4.9801505e-01
1.2068608e-01
0.0000000e+00
0.0000000e+00
8.1736818e-02
-6.3371044e-01
9.7359546e-02
-6.2041265e-01
0.0000000e+00
-5.4954499e-01
0.0000000e+00
1.2988269e-01
0.0000000e+00
0.0000000e+00
1.2670869e-01
-4.6175390e-01
-6.0406935e-01
1.1256388e-01
0.0000000e+00
0.0000000e+00
0.0000000e+00
0.0000000e+00
0.0000000e+00
0.0000000e+00
-5.2114999e-01
1.4034688e-01
0.0000000e+00
-6.2968075e-01
1.9183563e-02
0.0000000e+00
0.0000000e+00
-5.8480227e-01
1.2726389e-01
-6.3623637e-01
3.8307481e-02
-6.3634068e-01
5.7290521e-02
-6.3314325e-01
0.0000000e+00
0.0000000e+00
-4.2737854e-01
1.3292094e-01
7.6051757e-02
0.0000000e+00
0.0000000e+00
-6.2654155e-01
1.4136417e-01
-5.6271881e-01
-4.9019256e-01
1.4998217e-01
9.4509259e-02
-6.1672038e-01
0.0000000e+00
0.0000000e+00
0.0000000e+00
0.0000000e+00
0.0000000e+00
-6.0382253e-01
1.1257852e-01
1.5475473e-01
-5.3791416e-01
0.0000000e+00
0.0000000e+00
0.0000000e+00
0.0000000e+00
1.5780270e-01
-4.5453635e-01
0.0000000e+00
0.0000000e+00
-5.8798879e-01
1.3017067e-01
0.0000000e+00
0.0000000e+00
1.6732046e-01
-5.1050836e-01
1.4719036e-01
-5.6934690e-01
0.0000000e+00
-6.0983306e-01
0.0000000e+00
0.0000000e+00
-6.1617070e-01
2.1702556e-02
4.3335583e-02
-6.1626303e-01
1.6564590e-01
-4.2072040e-01
0.0000000e+00
0.0000000e+00
-6.1316323e-01
6.4808659e-02
1.6353329e-01
1.7886828e-01
0.0000000e+00
0.0000000e+00
8.6031705e-02
-6.0677552e-01
-4.8048180e-01
-5.4801214e-01
0.0000000e+00
0.0000000e+00
0.0000000e+00
0.0000000e+00
1.0691369e-01
-5.9728312e-01
0.0000000e+00
0.0000000e+00
1.7908372e-01
-5.2409083e-01
0.0000000e+00
1.2736130e-01
-5.8482987e-01
0.0000000e+00
0.0000000e+00
0.0000000e+00
1.8949847e-01
-4.4860074e-01
0.0000000e+00
0.0000000e+00
-5.6955862e-01
1.4727716e-01
1.9371426e-01
0.0000000e+00
0.0000000e+00
-4.9768540e-01
0.0000000e+00
-5.5160117e-01
1.6655816e-01
0.0000000e+00
0.0000000e+00
0.0000000e+00
0.0000000e+00
0.0000000e+00
-5.8757859e-01
1.9796653e-01
2.4136906e-02
-4.1263086e-01
-5.9367192e-01
4.8194706e-02
0.0000000e+00
0.0000000e+00
-5.9375012e-01
7.2074220e-02
0.0000000e+00
0.0000000e+00
-5.9075779e-01
2.0726807e-01
-4.6888936e-01
0.0000000e+00
0.0000000e+00
-5.3107810e-01
1.8509327e-01
9.5676698e-02
-5.8460575e-01
1.1890268e-01
-5.7547438e-01
0.0000000e+00
0.0000000e+00
2.0686112e-01
-3.7852535e-01
2.0276225e-01
0.0000000e+00
0.0000000e+00
-5.0810164e-01
-5.6350696e-01
1.4165077e-01
2.1968715e-01
-4.3791997e-01
0.0000000e+00
0.0000000e+00
0.0000000e+00
0.0000000e+00
1.6381620e-01
0.0000000e+00
0.0000000e+00
-5.4884684e-01
-4.8277593e-01
2.1943034e-01
0.0000000e+00
0.0000000e+00
0.0000000e+00
0.0000000e+00
1.8528928e-01
2.2963932e-01
-4.0285954e-01
-5.3162766e-01
0.0000000e+00
0.0000000e+00
0.0000000e+00
-5.6300527e-01
0.0000000e+00
0.0000000e+00
2.6477396e-02
-5.6882918e-01
5.2866422e-02
-5.6889158e-01
2.3497058e-01
-4.5523494e-01
7.9059549e-02
-5.6601638e-01
2.0595400e-01
-5.1197320e-01
-5.6012082e-01
0.0000000e+00
0.0000000e+00
1.0494984e-01
-3.6955890e-01
2.3980233e-01
-5.5138105e-01
1.3042994e-01
0.0000000e+00
0.0000000e+00
0.0000000e+00
0.0000000e+00
0.0000000e+00
2.2568600e-01
-4.8999852e-01
2.4912579e-01
0.0000000e+00
0.0000000e+00
-4.2545155e-01
0.0000000e+00
-5.3993827e-01
0.0000000e+00
1.5539107e-01
0.0000000e+00
0.0000000e+00
1.7972179e-01
-5.2593470e-01
2.4435402e-01
-4.6581775e-01
0.0000000e+00
0.0000000e+00
0.0000000e+00
0.0000000e+00
2.6210955e-01
-3.9416075e-01
0.0000000e+00
0.0000000e+00
2.0330688e-01
-5.0950378e-01
-5.3621000e-01
0.0000000e+00
-5.4174107e-01
2.8715048e-02
5.7332765e-02
-5.4178673e-01
0.0000000e+00
0.0000000e+00
2.6180679e-01
-4.3953359e-01
0.0000000e+00
0.0000000e+00
8.5737690e-02
-5.3903836e-01
0.0000000e+00
0.0000000e+00
-4.9077007e-01
2.2602610e-01
-5.3341949e-01
1.1381512e-01
0.0000000e+00
0.0000000e+00
0.0000000e+00
0.0000000e+00
2.7186632e-01
-3.5910800e-01
-5.2510059e-01
1.4145030e-01
0.0000000e+00
0.0000000e+00
2.4775347e-01
-4.6985093e-01
0.0000000e+00
0.0000000e+00
-4.1133055e-01
2.7793419e-01
-5.1421952e-01
1.6852756e-01
0.0000000e+00
0.0000000e+00
-5.0091547e-01
1.9492942e-01
-3.2596797e-01
2.8251037e-01
2.6835546e-01
-4.4685888e-01
0.0000000e+00
0.0000000e+00
-3.8111973e-01
2.9239571e-01
0.0000000e+00
0.0000000e+00
0.0000000e+00
-4.8532009e-01
0.0000000e+00
0.0000000e+00
2.2053571e-01
0.0000000e+00
0.0000000e+00
2.8769666e-01
-4.2191440e-01
0.0000000e+00
-5.0729859e-01
-5.1251531e-01
3.0841039e-02
0.0000000e+00
0.0000000e+00
-5.1254380e-01
6.1576098e-02
-4.6755672e-01
2.4522273e-01
9.2082173e-02
-5.0993210e-01
0.0000000e+00
0.0000000e+00
3.0561465e-01
-3.4983605e-01
0.0000000e+00
0.0000000e+00
1.2223720e-01
0.0000000e+00
0.0000000e+00
-5.0460970e-01
-3.9512426e-01
-4.9674013e-01
1.5191941e-01
3.0561814e-01
2.6886266e-01
-4.4774169e-01
0.0000000e+00
0.0000000e+00
-4.8645648e-01
0.0000000e+00
0.0000000e+00
1.8100671e-01
0.0000000e+00
0.0000000e+00
3.1525397e-01
-3.1525460e-01
0.0000000e+00
0.0000000e+00
2.9132387e-01
-4.2598829e-01
0.0000000e+00
0.0000000e+00
-4.7389346e-01
2.0937599e-01
3.2203698e-01
-3.6670738e-01
0.0000000e+00
0.0000000e+00
0.0000000e+00
0.0000000e+00
-4.5917898e-01
2.3690248e-01
3.1246960e-01
-4.0240866e-01
0.0000000e+00
-4.7638509e-01
3.2846600e-02
-4.8126781e-01
0.0000000e+00
0.0000000e+00
3.2596961e-01
-2.8251088e-01
6.5578885e-02
-4.8127967e-01
-4.4243345e-01
3.3658689e-01
-3.3658659e-01
0.0000000e+00
0.0000000e+00
2.6345927e-01
-4.7881472e-01
9.8066702e-02
0.0000000e+00
-4.7380829e-01
1.3018100e-01
0.0000000e+00
0.0000000e+00
-3.7712976e-01
0.0000000e+00
0.0000000e+00
3.3216810e-01
0.0000000e+00
0.0000000e+00
2.8891712e-01
-4.6641570e-01
1.6179340e-01
-4.2377055e-01
0.0000000e+00
0.0000000e+00
1.9277570e-01
-4.5676404e-01
0.0000000e+00
0.0000000e+00
3.4983680e-01
-3.0561471e-01
0.0000000e+00
0.0000000e+00
0.0000000e+00
-4.0329999e-01
3.1314453e-01
0.0000000e+00
-3.5026497e-01
3.5026506e-01
2.2299942e-01
-4.4498214e-01
0.0000000e+00
-4.3119273e-01
0.0000000e+00
2.5233546e-01
3.3600938e-01
0.0000000e+00
-3.8113186e-01
0.0000000e+00
3.5911062e-01
-2.7186629e-01
0.0000000e+00
0.0000000e+00
0.0000000e+00
0.0000000e+00
3.6670756e-01
0.0000000e+00
-4.4359151e-01
-3.2203674e-01
-4.4812259e-01
3.4722876e-02
-4.4811904e-01
0.0000000e+00
2.8065374e-01
0.0000000e+00
6.9323443e-02
-4.1551152e-01
-4.4581112e-01
1.0366479e-01
0.0000000e+00
0.0000000e+00
1.3761126e-01
-4.4113982e-01
0.0000000e+00
0.0000000e+00
-3.5737824e-01
3.5737818e-01
-3.9804780e-01
3.0782336e-01
-4.3425116e-01
1.7102820e-01
3.6956590e-01
-2.3980080e-01
3.8112038e-01
-2.9239544e-01
0.0000000e+00
0.0000000e+00
0.0000000e+00
0.0000000e+00
2.0378160e-01
-4.2526498e-01
3.7712950e-01
-3.7890667e-01
-3.3216795e-01
3.3371297e-01
0.0000000e+00
-4.1430315e-01
2.3573790e-01
0.0000000e+00
0.0000000e+00
0.0000000e+00
0.0000000e+00
0.0000000e+00
0.0000000e+00
2.6676372e-01
3.9416277e-01
-2.6210913e-01
-4.0148178e-01
3.7853715e-01
0.0000000e+00
0.0000000e+00
-2.0686084e-01
-3.5819167e-01
3.5819161e-01
-3.0561787e-01
3.9512381e-01
0.0000000e+00
0.0000000e+00
0.0000000e+00
-4.0904728e-01
0.0000000e+00
0.0000000e+00
-4.1321105e-01
3.6460791e-02
-3.8691059e-01
2.9672581e-01
7.2791643e-02
-4.1319397e-01
-4.1105351e-01
1.0884929e-01
-3.3600929e-01
3.8113150e-01
1.4449191e-01
-4.0673608e-01
0.0000000e+00
0.0000000e+00
4.0286419e-01
-2.2963820e-01
3.2549131e-01
-3.7069306e-01
0.0000000e+00
0.0000000e+00
-2.7793390e-01
0.0000000e+00
0.0000000e+00
-4.0037736e-01
1.7957889e-01
4.1132998e-01
0.0000000e+00
0.0000000e+00
-3.9208907e-01
2.1397075e-01
0.0000000e+00
0.0000000e+00
-3.1246936e-01
4.0240788e-01
0.0000000e+00
0.0000000e+00
-3.5292816e-01
3.5292819e-01
-3.8198489e-01
2.4752900e-01
0.0000000e+00
0.0000000e+00
-1.9796686e-01
4.1263843e-01
-2.4912541e-01
4.2545110e-01
2.8011611e-01
-3.7017334e-01
3.7890640e-01
-3.3371282e-01
0.0000000e+00
0.0000000e+00
0.0000000e+00
0.0000000e+00
4.2191303e-01
-2.8769636e-01
3.1159559e-01
0.0000000e+00
-3.7288871e-01
-3.5675687e-01
0.0000000e+00
3.8050871e-02
-3.7667140e-01
0.0000000e+00
0.0000000e+00
-3.7664333e-01
7.5964577e-02
0.0000000e+00
0.0000000e+00
0.0000000e+00
1.1359198e-01
4.0329933e-01