# vtk DataFile Version 4.0
vtk output
ASCII
DATASET UNSTRUCTURED_GRID
POINTS 2601 float
0.0000000e+00 0.0000000e+00 0.0000000e+00 
0.0000000e+00 3.9999999e-02 0.0000000e+00 
3.9999999e-02 0.0000000e+00 0.0000000e+00 
3.9999999e-02 3.9999999e-02 0.0000000e+00 
7.9999998e-02 0.0000000e+00 0.0000000e+00 
0.0000000e+00 7.9999998e-02 0.0000000e+00 
7.9999998e-02 3.9999999e-02 0.0000000e+00 
3.9999999e-02 7.9999998e-02 0.0000000e+00 
7.9999998e-02 7.9999998e-02 0.0000000e+00 
1.2000000e-01 0.0000000e+00 0.0000000e+00 
0.0000000e+00 1.2000000e-01 0.0000000e+00 
1.2000000e-01 3.9999999e-02 0.0000000e+00 
3.9999999e-02 1.2000000e-01 0.0000000e+00 
1.2000000e-01 7.9999998e-02 0.0000000e+00 
7.9999998e-02 1.2000000e-01 0.0000000e+00 
1.6000000e-01 0.0000000e+00 0.0000000e+00 
0.0000000e+00 1.6000000e-01 0.0000000e+00 
3.9999999e-02 1.6000000e-01 0.0000000e+00 
1.6000000e-01 3.9999999e-02 0.0000000e+00 
1.2000000e-01 1.2000000e-01 0.0000000e+00 
7.9999998e-02 1.6000000e-01 0.0000000e+00 
1.6000000e-01 7.9999998e-02 0.0000000e+00 
1.2000000e-01 1.6000000e-01 0.0000000e+00 
0.0000000e+00 2.0000000e-01 0.0000000e+00 
2.0000000e-01 0.0000000e+00 0.0000000e+00 
1.6000000e-01 1.2000000e-01 0.0000000e+00 
3.9999999e-02 2.0000000e-01 0.0000000e+00 
2.0000000e-01 3.9999999e-02 0.0000000e+00 
7.9999998e-02 2.0000000e-01 0.0000000e+00 
2.0000000e-01 7.9999998e-02 0.0000000e+00 
1.6000000e-01 1.6000000e-01 0.0000000e+00 
1.2000000e-01 2.0000000e-01 0.0000000e+00 
2.0000000e-01 1.2000000e-01 0.0000000e+00 
0.0000000e+00 2.3999999e-01 0.0000000e+00 
2.3999999e-01 0.0000000e+00 0.0000000e+00 
2.3999999e-01 3.9999999e-02 0.0000000e+00 
3.9999999e-02 2.3999999e-01 0.0000000e+00 
7.9999998e-02 2.3999999e-01 0.0000000e+00 
2.3999999e-01 7.9999998e-02 0.0000000e+00 
2.0000000e-01 1.6000000e-01 0.0000000e+00 
1.6000000e-01 2.0000000e-01 0.0000000e+00 
1.2000000e-01 2.3999999e-01 0.0000000e+00 
2.3999999e-01 1.2000000e-01 0.0000000e+00 
2.8000000e-01 0.0000000e+00 0.0000000e+00 
0.0000000e+00 2.8000000e-01 0.0000000e+00 
2.0000000e-01 2.0000000e-01 0.0000000e+00 
2.8000000e-01 3.9999999e-02 0.0000000e+00 
3.9999999e-02 2.8000000e-01 0.0000000e+00 
2.3999999e-01 1.6000000e-01 0.0000000e+00 
1.6000000e-01 2.3999999e-01 0.0000000e+00 
7.9999998e-02 2.8000000e-01 0.0000000e+00 
2.8000000e-01 7.9999998e-02 0.0000000e+00 
1.2000000e-01 2.8000000e-01 0.0000000e+00 
2.8000000e-01 1.2000000e-01 0.0000000e+00 
2.3999999e-01 2.0000000e-01 0.0000000e+00 
2.0000000e-01 2.3999999e-01 0.0000000e+00 
3.1999999e-01 0.0000000e+00 0.0000000e+00 
0.0000000e+00 3.1999999e-01 0.0000000e+00 
2.8000000e-01 1.6000000e-01 0.0000000e+00 
1.6000000e-01 2.8000000e-01 0.0000000e+00 
3.1999999e-01 3.9999999e-02 0.0000000e+00 
3.9999999e-02 3.1999999e-01 0.0000000e+00 
3.1999999e-01 7.9999998e-02 0.0000000e+00 
7.9999998e-02 3.1999999e-01 0.0000000e+00 
2.3999999e-01 2.3999999e-01 0.0000000e+00 
3.1999999e-01 1.2000000e-01 0.0000000e+00 
1.2000000e-01 3.1999999e-01 0.0000000e+00 
2.8000000e-01 2.0000000e-01 0.0000000e+00 
2.0000000e-01 2.8000000e-01 0.0000000e+00 
3.1999999e-01 1.6000000e-01 0.0000000e+00 
1.6000000e-01 3.1999999e-01 0.0000000e+00 
0.0000000e+00 3.6000001e-01 0.0000000e+00 
3.6000001e-01 0.0000000e+00 0.0000000e+00 
3.9999999e-02 3.6000001e-01 0.0000000e+00 
3.6000001e-01 3.9999999e-02 0.0000000e+00 
7.9999998e-02 3.6000001e-01 0.0000000e+00 
2.8000000e-01 2.3999999e-01 0.0000000e+00 
2.3999999e-01 2.8000000e-01 0.0000000e+00 
3.6000001e-01 7.9999998e-02 0.0000000e+00 
3.1999999e-01 2.0000000e-01 0.0000000e+00 
2.0000000e-01 3.1999999e-01 0.0000000e+00 
1.2000000e-01 3.6000001e-01 0.0000000e+00 
3.6000001e-01 1.2000000e-01 0.0000000e+00 
1.6000000e-01 3.6000001e-01 0.0000000e+00 
3.6000001e-01 1.6000000e-01 0.0000000e+00 
2.8000000e-01 2.8000000e-01 0.0000000e+00 
3.1999999e-01 2.3999999e-01 0.0000000e+00 
2.3999999e-01 3.1999999e-01 0.0000000e+00 
4.0000001e-01 0.0000000e+00 0.0000000e+00 
0.0000000e+00 4.0000001e-01 0.0000000e+00 
3.9999999e-02 4.0000001e-01 0.0000000e+00 
4.0000001e-01 3.9999999e-02 0.0000000e+00 
7.9999998e-02 4.0000001e-01 0.0000000e+00 
4.0000001e-01 7.9999998e-02 0.0000000e+00 
2.0000000e-01 3.6000001e-01 0.0000000e+00 
3.6000001e-01 2.0000000e-01 0.0000000e+00 
1.2000000e-01 4.0000001e-01 0.0000000e+00 
4.0000001e-01 1.2000000e-01 0.0000000e+00 
3.1999999e-01 2.8000000e-01 0.0000000e+00 
2.8000000e-01 3.1999999e-01 0.0000000e+00 
1.6000000e-01 4.0000001e-01 0.0000000e+00 
4.0000001e-01 1.6000000e-01 0.0000000e+00 
2.3999999e-01 3.6000001e-01 0.0000000e+00 
3.6000001e-01 2.3999999e-01 0.0000000e+00 
0.0000000e+00 4.4000000e-01 0.0000000e+00 
4.4000000e-01 0.0000000e+00 0.0000000e+00 
4.4000000e-01 3.9999999e-02 0.0000000e+00 
3.9999999e-02 4.4000000e-01 0.0000000e+00 
2.0000000e-01 4.0000001e-01 0.0000000e+00 
7.9999998e-02 4.4000000e-01 0.0000000e+00 
4.4000000e-01 7.9999998e-02 0.0000000e+00 
4.0000001e-01 2.0000000e-01 0.0000000e+00 
3.1999999e-01 3.1999999e-01 0.0000000e+00 
2.8000000e-01 3.6000001e-01 0.0000000e+00 
4.4000000e-01 1.2000000e-01 0.0000000e+00 
3.6000001e-01 2.8000000e-01 0.0000000e+00 
1.2000000e-01 4.4000000e-01 0.0000000e+00 
2.3999999e-01 4.0000001e-01 0.0000000e+00 
4.0000001e-01 2.3999999e-01 0.0000000e+00 
4.4000000e-01 1.6000000e-01 0.0000000e+00 
1.6000000e-01 4.4000000e-01 0.0000000e+00 
0.0000000e+00 4.7999999e-01 0.0000000e+00 
4.7999999e-01 0.0000000e+00 0.0000000e+00 
3.1999999e-01 3.6000001e-01 0.0000000e+00 
4.7999999e-01 3.9999999e-02 0.0000000e+00 
3.6000001e-01 3.1999999e-01 0.0000000e+00 
3.9999999e-02 4.7999999e-01 0.0000000e+00 
4.4000000e-01 2.0000000e-01 0.0000000e+00 
2.0000000e-01 4.4000000e-01 0.0000000e+00 
7.9999998e-02 4.7999999e-01 0.0000000e+00 
4.7999999e-01 7.9999998e-02 0.0000000e+00 
2.8000000e-01 4.0000001e-01 0.0000000e+00 
4.0000001e-01 2.8000000e-01 0.0000000e+00 
4.7999999e-01 1.2000000e-01 0.0000000e+00 
1.2000000e-01 4.7999999e-01 0.0000000e+00 
2.3999999e-01 4.4000000e-01 0.0000000e+00 
4.4000000e-01 2.3999999e-01 0.0000000e+00 
4.7999999e-01 1.6000000e-01 0.0000000e+00 
1.6000000e-01 4.7999999e-01 0.0000000e+00 
3.6000001e-01 3.6000001e-01 0.0000000e+00 
3.1999999e-01 4.0000001e-01 0.0000000e+00 
4.0000001e-01 3.1999999e-01 0.0000000e+00 
4.7999999e-01 2.0000000e-01 0.0000000e+00 
2.0000000e-01 4.7999999e-01 0.0000000e+00 
5.1999998e-01 0.0000000e+00 0.0000000e+00 
0.0000000e+00 5.1999998e-01 0.0000000e+00 
2.8000000e-01 4.4000000e-01 0.0000000e+00 
4.4000000e-01 2.8000000e-01 0.0000000e+00 
5.1999998e-01 3.9999999e-02 0.0000000e+00 
3.9999999e-02 5.1999998e-01 0.0000000e+00 
5.1999998e-01 7.9999998e-02 0.0000000e+00 
7.9999998e-02 5.1999998e-01 0.0000000e+00 
5.1999998e-01 1.2000000e-01 0.0000000e+00 
1.2000000e-01 5.1999998e-01 0.0000000e+00 
2.3999999e-01 4.7999999e-01 0.0000000e+00 
4.7999999e-01 2.3999999e-01 0.0000000e+00 
3.6000001e-01 4.0000001e-01 0.0000000e+00 
4.0000001e-01 3.6000001e-01 0.0000000e+00 
3.1999999e-01 4.4000000e-01 0.0000000e+00 
5.1999998e-01 1.6000000e-01 0.0000000e+00 
4.4000000e-01 3.1999999e-01 0.0000000e+00 
1.6000000e-01 5.1999998e-01 0.0000000e+00 
2.8000000e-01 4.7999999e-01 0.0000000e+00 
4.7999999e-01 2.8000000e-01 0.0000000e+00 
5.1999998e-01 2.0000000e-01 0.0000000e+00 
2.0000000e-01 5.1999998e-01 0.0000000e+00 
5.6000000e-01 0.0000000e+00 0.0000000e+00 
0.0000000e+00 5.6000000e-01 0.0000000e+00 
3.9999999e-02 5.6000000e-01 0.0000000e+00 
5.6000000e-01 3.9999999e-02 0.0000000e+00 
4.0000001e-01 4.0000001e-01 0.0000000e+00 
5.6000000e-01 7.9999998e-02 0.0000000e+00 
7.9999998e-02 5.6000000e-01 0.0000000e+00 
3.6000001e-01 4.4000000e-01 0.0000000e+00 
4.4000000e-01 3.6000001e-01 0.0000000e+00 
5.1999998e-01 2.3999999e-01 0.0000000e+00 
5.6000000e-01 1.2000000e-01 0.0000000e+00 
1.2000000e-01 5.6000000e-01 0.0000000e+00 
2.3999999e-01 5.1999998e-01 0.0000000e+00 
3.1999999e-01 4.7999999e-01 0.0000000e+00 
4.7999999e-01 3.1999999e-01 0.0000000e+00 
5.6000000e-01 1.6000000e-01 0.0000000e+00 
1.6000000e-01 5.6000000e-01 0.0000000e+00 
2.8000000e-01 5.1999998e-01 0.0000000e+00 
5.1999998e-01 2.8000000e-01 0.0000000e+00 
4.4000000e-01 4.0000001e-01 0.0000000e+00 
2.0000000e-01 5.6000000e-01 0.0000000e+00 
5.6000000e-01 2.0000000e-01 0.0000000e+00 
4.0000001e-01 4.4000000e-01 0.0000000e+00 
4.7999999e-01 3.6000001e-01 0.0000000e+00 
0.0000000e+00 6.0000002e-01 0.0000000e+00 
6.0000002e-01 0.0000000e+00 0.0000000e+00 
3.6000001e-01 4.7999999e-01 0.0000000e+00 
6.0000002e-01 3.9999999e-02 0.0000000e+00 
3.9999999e-02 6.0000002e-01 0.0000000e+00 
6.0000002e-01 7.9999998e-02 0.0000000e+00 
7.9999998e-02 6.0000002e-01 0.0000000e+00 
5.6000000e-01 2.3999999e-01 0.0000000e+00 
2.3999999e-01 5.6000000e-01 0.0000000e+00 
3.1999999e-01 5.1999998e-01 0.0000000e+00 
5.1999998e-01 3.1999999e-01 0.0000000e+00 
6.0000002e-01 1.2000000e-01 0.0000000e+00 
1.2000000e-01 6.0000002e-01 0.0000000e+00 
6.0000002e-01 1.6000000e-01 0.0000000e+00 
1.6000000e-01 6.0000002e-01 0.0000000e+00 
4.4000000e-01 4.4000000e-01 0.0000000e+00 
4.7999999e-01 4.0000001e-01 0.0000000e+00 
4.0000001e-01 4.7999999e-01 0.0000000e+00 
5.6000000e-01 2.8000000e-01 0.0000000e+00 
2.8000000e-01 5.6000000e-01 0.0000000e+00 
5.1999998e-01 3.6000001e-01 0.0000000e+00 
3.6000001e-01 5.1999998e-01 0.0000000e+00 
6.0000002e-01 2.0000000e-01 0.0000000e+00 
2.0000000e-01 6.0000002e-01 0.0000000e+00 
6.3999999e-01 0.0000000e+00 0.0000000e+00 
0.0000000e+00 6.3999999e-01 0.0000000e+00 
3.9999999e-02 6.3999999e-01 0.0000000e+00 
6.3999999e-01 3.9999999e-02 0.0000000e+00 
3.1999999e-01 5.6000000e-01 0.0000000e+00 
5.6000000e-01 3.1999999e-01 0.0000000e+00 
7.9999998e-02 6.3999999e-01 0.0000000e+00 
6.3999999e-01 7.9999998e-02 0.0000000e+00 
2.3999999e-01 6.0000002e-01 0.0000000e+00 
6.0000002e-01 2.3999999e-01 0.0000000e+00 
4.4000000e-01 4.7999999e-01 0.0000000e+00 
4.7999999e-01 4.4000000e-01 0.0000000e+00 
6.3999999e-01 1.2000000e-01 0.0000000e+00 
1.2000000e-01 6.3999999e-01 0.0000000e+00 
5.1999998e-01 4.0000001e-01 0.0000000e+00 
4.0000001e-01 5.1999998e-01 0.0000000e+00 
[...]
POINT_DATA 2601
FIELD FieldData 1
TEMPERATURE 1 2601  float
0.0000000e+00
0.0000000e+00
0.0000000e+00
1.6064703e-03
0.0000000e+00
0.0000000e+00
3.2103499e-03
3.2155314e-03
6.4258780e-03
0.0000000e+00
0.0000000e+00
4.8090518e-03
4.8297765e-03
9.6258624e-03
9.6517690e-03
0.0000000e+00
0.0000000e+00
6.4518065e-03
6.3999943e-03
1.4458201e-02
1.2893219e-02
1.2810319e-02
1.9313855e-02
0.0000000e+00
0.0000000e+00
1.9241318e-02
8.0842311e-03
7.9806065e-03
1.6155446e-02
1.5974103e-02
2.5703359e-02
2.4200641e-02
2.3993392e-02
0.0000000e+00
0.0000000e+00
9.5483288e-03
9.7296732e-03
1.9443689e-02
1.9112090e-02
3.2051414e-02
3.2206848e-02
2.9126415e-02
2.8706733e-02
0.0000000e+00
0.0000000e+00
4.0161151e-02
1.1100620e-02
1.1390770e-02
3.8347751e-02
3.8762249e-02
2.2763226e-02
2.2219196e-02
3.4099076e-02
3.3373702e-02
4.8050687e-02
4.8335653e-02
0.0000000e+00
0.0000000e+00
4.4582170e-02
4.5380078e-02
1.2634957e-02
1.3070182e-02
2.5290368e-02
2.6119368e-02
5.7831168e-02
3.7986718e-02
3.9126590e-02
5.5862680e-02
5.6588050e-02
5.0744537e-02
5.2070934e-02
0.0000000e+00
0.0000000e+00
1.4770589e-02
1.4148838e-02
2.9517474e-02
6.7233421e-02
6.7704909e-02
2.8320605e-02
6.3584447e-02
6.4931564e-02
4.4216983e-02
4.2538259e-02
5.8845505e-02
5.6824822e-02
7.8712672e-02
7.6527148e-02
7.7687740e-02
0.0000000e+00
0.0000000e+00
1.6494701e-02
1.5639791e-02
3.2962956e-02
3.1304952e-02
7.3379517e-02
7.1203403e-02
4.9378365e-02
4.7020894e-02
8.9593507e-02
9.0318874e-02
6.5714583e-02
6.2813088e-02
8.7795630e-02
8.5697241e-02
0.0000000e+00
0.0000000e+00
1.7105373e-02
1.8245254e-02
8.1945382e-02
3.6461290e-02
3.4238525e-02
7.8707114e-02
1.0280449e-01
1.0207057e-01
5.1427271e-02
1.0032970e-01
5.4618929e-02
9.8044671e-02
9.4728701e-02
6.8699516e-02
7.2689079e-02
0.0000000e+00
0.0000000e+00
1.1618128e-01
1.8543178e-02
1.1512432e-01
2.0025026e-02
8.6083278e-02
9.0642765e-02
4.0018018e-02
3.7116498e-02
1.1398652e-01
1.1090373e-01
5.5750154e-02
5.9946988e-02
1.0845116e-01
1.0360673e-01
7.4474424e-02
7.9780042e-02
1.3010484e-01
1.2974520e-01
1.2725826e-01
9.3319736e-02
9.9485427e-02
0.0000000e+00
0.0000000e+00
1.2608564e-01
1.2129825e-01
1.9950841e-02
2.1836830e-02
3.9934140e-02
4.3638766e-02
5.9982415e-02
6.5370962e-02
1.1903156e-01
1.1231670e-01
1.4529517e-01
1.4381857e-01
1.4351781e-01
8.0128290e-02
1.3918640e-01
8.6998679e-02
1.3838708e-01
1.3149613e-01
1.0040455e-01
1.0848734e-01
0.0000000e+00
0.0000000e+00
2.3683531e-02
2.1326043e-02
1.6061118e-01
4.2686809e-02
4.7329251e-02
1.6071950e-01
1.5730003e-01
1.2084419e-01
6.4117081e-02
7.0899412e-02
1.2980257e-01
1.5752091e-01
1.5088910e-01
8.5651778e-02
9.4356373e-02
1.5091023e-01
1.4148046e-01
1.7566815e-01
1.1766269e-01
1.0732599e-01
1.7766280e-01
1.7052695e-01
0.0000000e+00
0.0000000e+00
1.7640220e-01
2.2666521e-02
2.5568042e-02
4.5369964e-02
5.1095299e-02
1.2917505e-01
1.4078113e-01
1.7177652e-01
1.6234691e-01
6.8147324e-02
7.6541059e-02
9.1035739e-02
1.0186473e-01
1.9432011e-01
1.9044130e-01
1.9500044e-01
1.5123463e-01
1.6367477e-01
1.8347739e-01
1.9236794e-01
1.1407256e-01
1.2702592e-01
0.0000000e+00
0.0000000e+00
2.7493335e-02
2.3970079e-02
1.8630701e-01
1.7354070e-01
5.4942850e-02
4.7979206e-02
1.5198450e-01
1.3729542e-01
2.1328545e-01
2.1066403e-01
7.2066516e-02
8.2304791e-02
2.0490606e-01
2.1265134e-01
1.0953555e-01
9.6271299e-02
1.6074231e-01
1.7670068e-01
1.9612961e-01
2.0864168e-01
1.3659173e-01
1.2063310e-01
2.3122728e-01
0.0000000e+00
2.0113508e-01
0.0000000e+00
1.8445162e-01
2.2666743e-01
2.3259395e-01
2.9462453e-02
2.5234584e-02
1.4519176e-01
1.6343026e-01
5.8877975e-02
5.0510269e-02
2.1903813e-01
2.3064302e-01
8.8199705e-02
7.5868234e-02
1.0134985e-01
1.1738095e-01
1.9000839e-01
1.6998756e-01
2.0846222e-01
2.2524877e-01
2.4879624e-01
2.5216338e-01
1.4637522e-01
1.2699676e-01
2.5227568e-01
2.4230340e-01
1.9506127e-01
2.1628387e-01
0.0000000e+00
0.0000000e+00
2.6457991e-02
3.1478502e-02
2.3281346e-01
2.4900334e-01
1.5285096e-01
1.7513642e-01
5.2959044e-02
6.2906884e-02
9.4235107e-02
7.9546303e-02
2.4221498e-01
2.2045420e-01
2.7132741e-01
1.7895491e-01
2.0361875e-01
1.0626312e-01
1.2541330e-01
2.6596287e-01
2.7350482e-01
2.5754520e-01
2.7236095e-01
1.5639183e-01
1.3315314e-01
2.3177704e-01
2.0535167e-01
2.4620831e-01
2.6776063e-01
1.6026039e-01
1.8712139e-01
0.0000000e+00
0.0000000e+00
3.3544671e-02
2.7638342e-02
5.5321608e-02
6.7035958e-02
2.9005411e-01
2.9429594e-01
2.8269768e-01
2.9528433e-01
1.0042055e-01
8.3094813e-02
2.5956666e-01
2.3208497e-01
2.1755317e-01
1.8762945e-01
2.9288042e-01
1.3364531e-01
1.1100319e-01
2.7236623e-01
1.3909227e-01
1.6665737e-01
2.4763885e-01
2.1530554e-01
2.5919935e-01
2.8694376e-01
3.1461474e-01
3.1773677e-01
3.0831140e-01
1.6740802e-01
1.9940418e-01
3.1753474e-01
2.9897121e-01
0.0000000e+00
0.0000000e+00
2.8773770e-02
3.5664223e-02
7.1271718e-02
5.7594225e-02
2.7733085e-01
2.4333470e-01
8.6508155e-02
1.0676581e-01
2.3183368e-01
1.9599696e-01
3.1386536e-01
2.8674024e-01
1.1556256e-01
1.4209005e-01
3.3442688e-01
3.3968204e-01
2.7176392e-01
3.0658242e-01
2.6389438e-01
2.2490634e-01
3.2606697e-01
1.4480473e-01
3.4168482e-01
1.7718817e-01
3.1475395e-01
3.4028944e-01
1.7428245e-01
2.1200429e-01
0.0000000e+00
0.0000000e+00
3.7840515e-02
2.5418434e-01
2.9553548e-01
2.9862510e-02
7.5620860e-02
3.0064136e-01
3.3534780e-01
5.9773371e-02
2.4648300e-01
2.0404403e-01
8.9781031e-02
1.1328096e-01
3.6108395e-01
3.5369742e-01
3.6529267e-01
1.5076089e-01
1.1993414e-01
3.6617509e-01
3.4328786e-01
2.8388023e-01
3.2670721e-01
2.8056943e-01
2.3413855e-01
1.8800095e-01
1.5028167e-01
3.6358252e-01
3.3001655e-01
1.8087302e-01
2.2494182e-01
3.1420949e-01
2.6461607e-01
3.8832110e-01
3.8190585e-01
3.5736093e-01
3.1404477e-01
0.0000000e+00
0.0000000e+00
4.0076967e-02
3.0902902e-02
3.9148268e-01
3.7238994e-01
6.1855715e-02
8.0090262e-02
2.6152459e-01
2.1175814e-01
1.1997627e-01
9.2908449e-02
3.5994050e-01
3.9124343e-01
1.5967157e-01
1.2411131e-01
2.9552794e-01
3.4735006e-01
2.9769087e-01
3.4473041e-01
2.4298775e-01
3.8744947e-01
1.5551479e-01
1.9911294e-01
4.1073340e-01
4.0210867e-01
4.1617435e-01
2.3823746e-01
1.8716981e-01
3.9046589e-01
4.1828865e-01
3.2692707e-01
3.7993923e-01
3.3338302e-01
2.7461350e-01
0.0000000e+00
0.0000000e+00
4.2377099e-02
3.7599167e-01
4.1692740e-01
3.1893380e-02
8.4686935e-02
2.1912777e-01
2.7698264e-01
6.3838139e-02
1.2686232e-01
9.5885746e-02
3.6854425e-01
3.0668831e-01
3.5886863e-01
4.1192704e-01
1.6883619e-01
1.2808786e-01
4.4021550e-01
4.3249115e-01
3.1528646e-01
2.5144079e-01
4.4467807e-01
4.2164770e-01
2.1054175e-01
1.6049638e-01
4.4575045e-01
4.0788540e-01
4.0311894e-01
3.3926693e-01
2.8416184e-01
2.5191244e-01
3.5308748e-01
1.9316363e-01
3.9141044e-01
4.4326621e-01
0.0000000e+00
0.0000000e+00
4.4744495e-02
3.2832481e-02
2.9288206e-01
2.2614236e-01
4.6357739e-01
6.5717712e-02
8.9418069e-02
4.5354509e-01
4.7037688e-01
3.1734493e-01
3.9032498e-01
4.3705323e-01
3.7240657e-01
9.8708548e-02
1.3394985e-01
4.7387242e-01
4.4047114e-01
1.7826915e-01
1.3185798e-01
2.5948584e-01
3.3338484e-01
4.7391334e-01
4.2461294e-01
1.6521928e-01
2.2230543e-01
3.5104576e-01
4.2693898e-01
4.7029710e-01
3.7335545e-01
2.9324812e-01
4.0616849e-01
2.6598850e-01
1.9884600e-01
4.8622593e-01
4.9537703e-01
4.7381562e-01
5.0123692e-01
3.0924833e-01
0.0000000e+00
2.3279215e-01
0.0000000e+00
5.0382429e-01
4.5853579e-01
4.7182821e-02
3.3718824e-02
3.8532224e-01
4.6286991e-01
9.4290979e-02
6.7491695e-02
4.1272920e-01
3.2748389e-01
1.4124988e-01
1.0137274e-01
4.4062018e-01
5.0281239e-01
2.6711214e-01
3.5201538e-01
1.8798509e-01
1.3541624e-01
5.1975542e-01
4.5144212e-01
2.3442237e-01
1.6967671e-01
3.6224887e-01
5.2779841e-01
5.0802583e-01
4.9805653e-01
4.2023674e-01
4.9322036e-01
5.3289992e-01
3.9422029e-01
3.0186087e-01
2.8048775e-01
2.0420896e-01
5.3461146e-01
4.7583872e-01
4.8943087e-01
3.9759991e-01
3.2610744e-01
2.3906811e-01
3.3709362e-01
0.0000000e+00
0.0000000e+00
4.3579432e-01
4.9695808e-02
3.4551121e-02
5.3242767e-01
9.9313140e-02
4.5586053e-01
6.9157504e-02
5.5397415e-01
5.4344457e-01
1.4877361e-01
1.0387448e-01
3.7120801e-01
2.7430969e-01
5.6060541e-01
5.2861726e-01
1.9799897e-01
1.3875754e-01
5.6593311e-01
3.7286592e-01
4.7666937e-01
5.1191282e-01
4.3359575e-01
5.2663141e-01
2.4691121e-01
1.7386237e-01
4.1571608e-01
3.0998957e-01
4.9228609e-01
5.6587601e-01
2.9543263e-01
2.0924498e-01
5.1678008e-01
4.0923283e-01
5.7706708e-01
5.8614260e-01
5.6428826e-01
3.4348568e-01
5.6296581e-01
4.5955834e-01
3.4616381e-01
4.7029912e-01
2.4496163e-01
0.0000000e+00
0.0000000e+00
5.4893452e-01
5.2287277e-02
3.5328157e-02
5.9331506e-01
1.0449218e-01
7.0712715e-02
1.0621013e-01
1.5653242e-01
5.9820896e-01
5.2965766e-01
2.8106898e-01
3.9099312e-01
4.4624716e-01
5.5607253e-01
2.0832594e-01
1.4187706e-01
5.0266099e-01
3.8288832e-01
5.0778741e-01
5.9825587e-01
2.5979093e-01
1.7777029e-01
4.3787766e-01
3.1762397e-01
5.9901446e-01
6.1083829e-01
6.1916435e-01
2.1394694e-01
5.8371556e-01
3.1084585e-01
5.4494750e-01
4.2021835e-01
5.9454829e-01
4.8395285e-01
5.6607366e-01
6.2788850e-01
4.8406202e-01
3.5468370e-01
2.5046447e-01
3.6140957e-01
0.0000000e+00
0.0000000e+00
6.3171059e-01
5.4620475e-01
5.4961123e-02
3.6048800e-02
7.2155058e-02
1.0983587e-01
2.8738064e-01
4.1140109e-01
1.0837631e-01
1.6453798e-01
4.5820722e-01
5.8633024e-01
3.9230523e-01
5.2946872e-01
6.3351852e-01
2.1898146e-01
1.4477025e-01
5.2235967e-01
6.3247114e-01
6.1886090e-01
6.4444596e-01
6.0238498e-01
6.5497452e-01
2.7308065e-01
1.8139476e-01
3.2475358e-01
4.6073940e-01
6.6263098e-01
5.8326620e-01
5.7401878e-01
2.1830805e-01
3.2675031e-01
4.3054500e-01
6.2668359e-01
4.9690542e-01
3.6264178e-01
5.0934333e-01
5.6133246e-01
6.6606581e-01
2.5556865e-01
3.7990567e-01
0.0000000e+00
0.0000000e+00
0.0000000e+00
0.0000000e+00
5.7721339e-02
3.6711980e-02
7.3482409e-02
1.1535218e-01
0.0000000e+00
6.1761737e-01
6.3851291e-01
4.6945798e-01
4.3246233e-01
2.9323548e-01
1.1036980e-01
5.5713314e-01
4.0110385e-01
5.3636593e-01
6.6580462e-01
1.7280218e-01
0.0000000e+00
6.2037408e-01
2.2998129e-01
1.4743285e-01
4.8433554e-01
6.9780177e-01
6.0074908e-01
3.3136797e-01
1.8473046e-01
2.8679991e-01
6.6005129e-01
5.0909567e-01
6.0404140e-01
4.4019848e-01
3.4316903e-01
2.2232184e-01
7.0182616e-01
5.7669723e-01
0.0000000e+00
5.3543878e-01
0.0000000e+00
0.0000000e+00
3.7002599e-01
3.9900053e-01
2.6026657e-01
0.0000000e+00
0.0000000e+00
6.5006924e-01
4.7998402e-01
0.0000000e+00
0.0000000e+00
0.0000000e+00
0.0000000e+00
3.7316713e-02
6.0572058e-02
5.4950136e-01
7.0036131e-01
7.4692786e-02
1.2104934e-01
4.5420694e-01
2.9862472e-01
5.8567905e-01
4.0926993e-01
1.1218765e-01
1.8133727e-01
6.1718583e-01
7.3496491e-01
2.4134159e-01
1.4986090e-01
3.3745685e-01
5.0870168e-01
0.0000000e+00
3.0096862e-01
0.0000000e+00
1.8777239e-01
6.9554293e-01
5.2051800e-01
6.3494450e-01
4.4916105e-01
0.0000000e+00
0.0000000e+00
7.3768854e-01
5.9068781e-01
3.6012548e-01
2.2598228e-01
0.0000000e+00
0.0000000e+00
5.6239730e-01
3.7682423e-01
2.6455110e-01
0.0000000e+00
4.1872036e-01
0.0000000e+00
6.8307519e-01
4.8976159e-01
7.3581570e-01
5.6185603e-01
0.0000000e+00
0.0000000e+00
4.1678891e-01
6.1519969e-01
6.3517548e-02
3.7862089e-02
3.0353996e-01
4.7666329e-01
7.5784363e-02
1.2693587e-01
0.0000000e+00
6.3250262e-01
0.0000000e+00
1.9015597e-01
0.0000000e+00
0.0000000e+00
1.1382709e-01
0.0000000e+00
0.0000000e+00
1.5205072e-01
2.5307918e-01
7.2983134e-01
5.3113621e-01
5.3386688e-01
3.4301051e-01
4.5741415e-01
6.0404992e-01
7.7396441e-01
6.6698229e-01
0.0000000e+00
0.0000000e+00
3.1560752e-01
1.9051594e-01
3.7764382e-01
2.2928375e-01
3.8302514e-01
6.7545408e-01
0.0000000e+00
5.9024894e-01
7.7291483e-01
5.7335496e-01
4.9876514e-01
7.1745580e-01
4.3909222e-01
2.6841563e-01
0.0000000e+00
0.0000000e+00
0.0000000e+00
0.0000000e+00
6.4715272e-01
0.0000000e+00
4.2364725e-01
6.4574027e-01
0.0000000e+00
0.0000000e+00
6.6562250e-02
4.9985892e-01
0.0000000e+00
3.8347278e-02
0.0000000e+00
3.0797350e-01
7.6755486e-02
1.3302064e-01
1.1528565e-01
1.9927152e-01
5.4091030e-01
0.0000000e+00
7.6541024e-01
0.0000000e+00
1.5399896e-01
2.6521167e-01
8.1258965e-01
6.1650324e-01
5.5985367e-01
3.4802005e-01
4.6494153e-01
7.0032912e-01
3.3073846e-01
1.9295686e-01
0.0000000e+00
6.9134343e-01
0.0000000e+00
0.0000000e+00
0.0000000e+00
3.9575011e-01
2.3222117e-01
6.1899137e-01
3.8861859e-01
5.8392429e-01
0.0000000e+00
0.0000000e+00
8.0987602e-01
7.5435549e-01
5.0697452e-01
0.0000000e+00
2.7185410e-01
4.6014580e-01
6.6071481e-01
0.0000000e+00
0.0000000e+00
6.7718321e-01
4.2983347e-01
3.1191844e-01
5.2382648e-01
0.0000000e+00
0.0000000e+00
3.8771532e-02
0.0000000e+00
7.3660409e-01
6.9710813e-02
1.3931291e-01
7.7604659e-02
8.0175889e-01
5.4981560e-01
6.2789315e-01
0.0000000e+00
1.1656106e-01
2.0869781e-01
5.8669746e-01
7.3423856e-01
1.5570261e-01
0.0000000e+00
0.0000000e+00
3.5247758e-01
4.7173020e-01
2.7775750e-01
0.0000000e+00
7.0628268e-01
0.0000000e+00
0.0000000e+00
1.9509141e-01
3.4638458e-01
0.0000000e+00
0.0000000e+00
6.4867973e-01
3.9359573e-01
5.9353870e-01
8.4698880e-01
4.1447231e-01
2.3478995e-01
0.0000000e+00
0.0000000e+00
6.7292058e-01
0.0000000e+00
7.8919512e-01
5.1437575e-01
4.8191437e-01
2.7486119e-01
0.0000000e+00
7.0976263e-01
4.3533787e-01
7.5248283e-01
0.0000000e+00
3.1536853e-01
5.4860383e-01
0.0000000e+00
0.0000000e+00
6.3822460e-01
0.0000000e+00
0.0000000e+00
0.0000000e+00
8.3995622e-01
3.9134189e-02
7.2968096e-02
5.5783886e-01
0.0000000e+00
0.0000000e+00
7.8330547e-02
1.4582238e-01
7.1911049e-01
0.0000000e+00
1.1765134e-01
2.1844932e-01
4.7777006e-01
7.7024668e-01
0.0000000e+00
0.0000000e+00
3.5637614e-01
6.1442995e-01
2.9073593e-01
1.5715899e-01
3.6257002e-01
1.9691621e-01
0.0000000e+00
0.0000000e+00
6.0219043e-01
8.8691902e-01
6.7926735e-01
3.9794883e-01
0.0000000e+00
6.8396395e-01
2.3698607e-01
4.3384016e-01
8.2542264e-01
5.2095932e-01
0.0000000e+00
0.0000000e+00
7.6637399e-01
0.0000000e+00
0.0000000e+00
5.0443554e-01
2.7743211e-01
0.0000000e+00
4.4015223e-01
7.4294102e-01
0.0000000e+00
0.0000000e+00
0.0000000e+00
6.4750254e-01
5.6497371e-01
8.7788630e-01
3.1831840e-01
5.7424456e-01
7.3086476e-01
0.0000000e+00
0.0000000e+00
0.0000000e+00
0.0000000e+00
0.0000000e+00
3.9434683e-02
7.6339193e-02
1.5255919e-01
7.8932017e-02
4.8305279e-01
8.0511475e-01
2.2854115e-01
1.1855474e-01
3.5970962e-01
6.4315110e-01
8.1468338e-01
0.0000000e+00
3.0416691e-01
1.5836579e-01
6.0988152e-01
0.0000000e+00
0.0000000e+00
0.0000000e+00
1.9842836e-01
3.7931940e-01
6.9384581e-01
0.0000000e+00
0.0000000e+00
4.0167123e-01
7.1101880e-01
8.6364830e-01
5.2671784e-01
0.0000000e+00
0.0000000e+00
0.0000000e+00
4.5388284e-01
7.7910572e-01
2.3880602e-01
0.0000000e+00
0.0000000e+00
5.2774298e-01
2.7956280e-01
7.7761924e-01
4.4426936e-01
6.5574944e-01
0.0000000e+00
0.0000000e+00
0.0000000e+00
0.0000000e+00
5.7121515e-01
9.1842425e-01
7.4127889e-01
6.0078770e-01
3.2076332e-01
0.0000000e+00
0.0000000e+00
7.9829492e-02
3.9672524e-02
0.0000000e+00
1.5953405e-01
8.2807577e-01
7.9408094e-02
8.4227216e-01
4.8757106e-01
0.0000000e+00
0.0000000e+00
1.1926983e-01
0.0000000e+00
0.0000000e+00
2.3898916e-01
6.7291111e-01
3.6247274e-01
1.5932107e-01
3.1807116e-01
7.0263773e-01
0.0000000e+00
0.0000000e+00
0.0000000e+00
0.0000000e+00
6.1661249e-01
3.9665785e-01
1.9962542e-01
0.0000000e+00
7.8981638e-01
9.0323859e-01
0.0000000e+00
0.0000000e+00
5.3164405e-01
4.0475705e-01
7.4403757e-01
4.7462881e-01
2.4024683e-01
0.0000000e+00
0.0000000e+00
6.6297585e-01
5.5186588e-01
2.8124979e-01
0.0000000e+00
8.1424487e-01
4.4768298e-01
0.0000000e+00
7.5058860e-01
5.7655668e-01
0.0000000e+00
0.0000000e+00
0.0000000e+00
0.0000000e+00
3.2269928e-01
6.2825221e-01
0.0000000e+00
0.0000000e+00
8.3928329e-01
0.0000000e+00
0.0000000e+00
4.9131805e-01
0.0000000e+00
8.8135946e-01
8.3444729e-02
0.0000000e+00
0.0000000e+00
3.9847326e-02
7.9757988e-02
1.6675836e-01
7.0366794e-01
3.6466098e-01
7.1036714e-01
1.1028695e+00
2.4981025e-01
1.1979542e-01
1.0369183e+00
6.2237740e-01
9.3171293e-01
0.0000000e+00
7.9959774e-01
1.1520336e+00
3.3247077e-01
1.6002326e-01
4.1461200e-01
9.4482416e-01
5.3573066e-01
2.0050539e-01
7.7797550e-01
4.0720129e-01
1.1871397e+00
8.8956100e-01
4.9610868e-01
2.4130613e-01
0.0000000e+00
0.0000000e+00
0.0000000e+00
0.0000000e+00
1.0949111e+00
6.6917437e-01
1.1528677e+00
7.5884008e-01
0.0000000e+00
0.0000000e+00
4.5038745e-01
8.5099494e-01
2.8249022e-01
5.7683945e-01
1.0124511e+00
5.8099002e-01
8.4954756e-01
1.1964036e+00
1.2082878e+00
9.8505455e-01
3.2412305e-01
6.5668732e-01
9.2081827e-01
4.9428752e-01
0.0000000e+00
0.0000000e+00
8.7191075e-02
3.9958786e-02
9.4403136e-01
1.2256058e+00
7.1701497e-01
1.1463051e+00
7.9981118e-02
1.7424440e-01
8.0843830e-01
1.1983306e+00
1.0768923e+00
6.2716603e-01
7.3553306e-01
3.6627063e-01
2.6102272e-01
1.2013062e-01
0.0000000e+00
3.4738967e-01
1.6047113e-01
0.0000000e+00
0.0000000e+00
5.3897059e-01
1.2361436e+00
9.8793286e-01
9.0009487e-01
1.2165074e+00
0.0000000e+00
8.1320161e-01
2.0106676e-01
4.3321070e-01
4.0899971e-01
1.0395311e+00
1.2411673e+00
2.4198204e-01
7.6596630e-01
1.1994565e+00
5.1835448e-01
6.7432934e-01
1.1378901e+00
1.2457763e+00
8.5921443e-01
1.2596219e+00
9.9816036e-01
4.5237795e-01
8.8915533e-01
5.8450675e-01
1.0537508e+00
6.0269588e-01
2.8328195e-01
3.2503209e-01
6.8612468e-01
1.2774621e+00
9.5530611e-01
9.6195346e-01
4.9647394e-01
0.0000000e+00
1.2123340e+00
1.1945045e+00
7.2255200e-01
0.0000000e+00
1.2498199e+00
1.2441473e+00
8.1610101e-01
1.1205307e+00
0.0000000e+00
0.0000000e+00
6.3096726e-01
4.0006712e-02
9.1075160e-02
1.0966612e+00
8.0077067e-02
1.8200549e-01
7.6857519e-01
1.2698478e+00
3.6729875e-01
1.2027480e-01
1.2902375e+00
9.1135573e-01
2.7264652e-01
1.2951037e+00
3.6285442e-01
1.6066387e-01
1.0534508e+00
1.0327138e+00
5.4135740e-01
8.5014260e-01
4.1014895e-01
2.0130850e-01
4.5248669e-01
1.2476563e+00
7.7190918e-01
6.7842489e-01
1.1819329e+00
1.3159027e+00
1.0100831e+00
8.6751598e-01
1.2970721e+00
2.4227332e-01
5.4140270e-01
1.1007828e+00
4.5365071e-01
9.3159646e-01
5.8709913e-01
1.2346807e+00
2.8362346e-01
6.2946486e-01
1.2677543e+00
1.1957268e+00
1.3313326e+00
9.6573830e-01
1.2998590e+00
1.1559374e+00
7.2695464e-01
1.2467963e+00
3.2542464e-01
7.1654034e-01
8.2248342e-01
1.3057989e+00
1.3278522e+00
1.1110752e+00
4.9787298e-01
1.0056490e+00
6.3377142e-01
1.1673790e+00
1.3487489e+00
9.2037541e-01
1.3510629e+00
1.0668237e+00
0.0000000e+00
0.0000000e+00
3.9990991e-02
9.5104076e-02
3.6774328e-01
8.0250049e-01
1.9005591e-01
8.0045633e-02
2.8470340e-01
1.2022767e-01
5.4288590e-01
1.0779090e+00
3.7889487e-01
1.6060106e-01
1.0213612e+00
1.3765008e+00
1.3070799e+00
7.7663487e-01
8.8719720e-01
4.1064668e-01
1.2533864e+00
1.3594270e+00
8.7437320e-01
1.2923334e+00
6.8144846e-01
4.7247899e-01
2.0123005e-01
1.2368318e+00
1.3272241e+00
1.2155664e+00
2.4217927e-01
5.6530470e-01
1.3574526e+00
1.1708828e+00
1.3958348e+00
5.8876085e-01
1.1516782e+00
9.7492993e-01
9.7028095e-01
4.5420295e-01
1.3899854e+00
2.8351390e-01
6.5722054e-01
1.1251571e+00
8.2755023e-01
1.3662927e+00
1.3036675e+00
7.3020661e-01
3.2529968e-01
7.4807137e-01
1.0500507e+00
1.0786040e+00
1.4171849e+00
4.9848133e-01
1.4118513e+00
9.2769992e-01
6.3557094e-01
1.2233421e+00
8.3768910e-01
0.0000000e+00
0.0000000e+00
3.6760312e-01
1.3144046e+00
3.9911620e-02
9.9285245e-02
1.2734334e+00
1.3514870e+00
1.9841063e-01
1.0310198e+00
1.4415832e+00
7.9886794e-02
1.3903323e+00
1.1278251e+00
5.4355228e-01
1.2319777e+00
2.9721636e-01
1.1998919e-01
7.8012556e-01
1.3675745e+00
8.7979352e-01
1.4229856e+00
3.9554262e-01
1.6028266e-01
1.2943478e+00
6.8339086e-01
1.1852307e+00
9.2586476e-01
1.4245532e+00
4.1049150e-01
2.0083134e-01
4.9322960e-01
9.8258626e-01
1.4616747e+00
1.1374987e+00
1.4564734e+00
5.9011668e-01
1.2046788e+00
5.8948755e-01
2.4169983e-01
4.5403305e-01
1.0122795e+00
1.4293063e+00
8.3128917e-01
6.8604124e-01
2.8295320e-01
1.0887321e+00
1.4847026e+00
1.3634679e+00
7.3229784e-01
9.3346483e-01
1.4775547e+00
1.3341805e+00
1.3784369e+00
1.0964477e+00
4.9829715e-01
7.8083539e-01
1.2920586e+00
3.2465711e-01
1.4190181e+00
6.3636053e-01
1.2799635e+00
1.2467803e+00
1.4576346e+00
1.0390561e+00
1.5092943e+00
8.7431991e-01
3.6687800e-01
0.0000000e+00
0.0000000e+00