# vtk DataFile Version 4.0
vtk output
ASCII
DATASET UNSTRUCTURED_GRID
POINTS 529 float
1.0000000e+00 1.0000000e+00 0.0000000e+00 
9.5454544e-01 1.0000000e+00 0.0000000e+00 
1.0000000e+00 9.5454544e-01 0.0000000e+00 
9.5454544e-01 9.5454544e-01 0.0000000e+00 
1.0000000e+00 9.0909094e-01 0.0000000e+00 
9.0909094e-01 1.0000000e+00 0.0000000e+00 
9.5454544e-01 9.0909094e-01 0.0000000e+00 
9.0909094e-01 9.5454544e-01 0.0000000e+00 
9.0909094e-01 9.0909094e-01 0.0000000e+00 
8.6363637e-01 1.0000000e+00 0.0000000e+00 
1.0000000e+00 8.6363637e-01 0.0000000e+00 
9.5454544e-01 8.6363637e-01 0.0000000e+00 
8.6363637e-01 9.5454544e-01 0.0000000e+00 
9.0909094e-01 8.6363637e-01 0.0000000e+00 
8.6363637e-01 9.0909094e-01 0.0000000e+00 
8.1818181e-01 1.0000000e+00 0.0000000e+00 
1.0000000e+00 8.1818181e-01 0.0000000e+00 
8.1818181e-01 9.5454544e-01 0.0000000e+00 
9.5454544e-01 8.1818181e-01 0.0000000e+00 
8.6363637e-01 8.6363637e-01 0.0000000e+00 
8.1818181e-01 9.0909094e-01 0.0000000e+00 
9.0909094e-01 8.1818181e-01 0.0000000e+00 
7.7272725e-01 1.0000000e+00 0.0000000e+00 
1.0000000e+00 7.7272725e-01 0.0000000e+00 
8.6363637e-01 8.1818181e-01 0.0000000e+00 
8.1818181e-01 8.6363637e-01 0.0000000e+00 
7.7272725e-01 9.5454544e-01 0.0000000e+00 
9.5454544e-01 7.7272725e-01 0.0000000e+00 
7.7272725e-01 9.0909094e-01 0.0000000e+00 
9.0909094e-01 7.7272725e-01 0.0000000e+00 
8.1818181e-01 8.1818181e-01 0.0000000e+00 
8.6363637e-01 7.7272725e-01 0.0000000e+00 
7.7272725e-01 8.6363637e-01 0.0000000e+00 
7.2727275e-01 1.0000000e+00 0.0000000e+00 
1.0000000e+00 7.2727275e-01 0.0000000e+00 
9.5454544e-01 7.2727275e-01 0.0000000e+00 
7.2727275e-01 9.5454544e-01 0.0000000e+00 
9.0909094e-01 7.2727275e-01 0.0000000e+00 
7.2727275e-01 9.0909094e-01 0.0000000e+00 
7.7272725e-01 8.1818181e-01 0.0000000e+00 
8.1818181e-01 7.7272725e-01 0.0000000e+00 
8.6363637e-01 7.2727275e-01 0.0000000e+00 
7.2727275e-01 8.6363637e-01 0.0000000e+00 
1.0000000e+00 6.8181819e-01 0.0000000e+00 
6.8181819e-01 1.0000000e+00 0.0000000e+00 
9.5454544e-01 6.8181819e-01 0.0000000e+00 
6.8181819e-01 9.5454544e-01 0.0000000e+00 
7.7272725e-01 7.7272725e-01 0.0000000e+00 
7.2727275e-01 8.1818181e-01 0.0000000e+00 
8.1818181e-01 7.2727275e-01 0.0000000e+00 
6.8181819e-01 9.0909094e-01 0.0000000e+00 
9.0909094e-01 6.8181819e-01 0.0000000e+00 
6.8181819e-01 8.6363637e-01 0.0000000e+00 
8.6363637e-01 6.8181819e-01 0.0000000e+00 
7.7272725e-01 7.2727275e-01 0.0000000e+00 
7.2727275e-01 7.7272725e-01 0.0000000e+00 
1.0000000e+00 6.3636363e-01 0.0000000e+00 
6.3636363e-01 1.0000000e+00 0.0000000e+00 
9.5454544e-01 6.3636363e-01 0.0000000e+00 
8.1818181e-01 6.8181819e-01 0.0000000e+00 
6.8181819e-01 8.1818181e-01 0.0000000e+00 
6.3636363e-01 9.5454544e-01 0.0000000e+00 
6.3636363e-01 9.0909094e-01 0.0000000e+00 
9.0909094e-01 6.3636363e-01 0.0000000e+00 
7.2727275e-01 7.2727275e-01 0.0000000e+00 
6.3636363e-01 8.6363637e-01 0.0000000e+00 
8.6363637e-01 6.3636363e-01 0.0000000e+00 
7.7272725e-01 6.8181819e-01 0.0000000e+00 
6.8181819e-01 7.7272725e-01 0.0000000e+00 
6.3636363e-01 8.1818181e-01 0.0000000e+00 
8.1818181e-01 6.3636363e-01 0.0000000e+00 
1.0000000e+00 5.9090906e-01 0.0000000e+00 
5.9090906e-01 1.0000000e+00 0.0000000e+00 
9.5454544e-01 5.9090906e-01 0.0000000e+00 
5.9090906e-01 9.5454544e-01 0.0000000e+00 
9.0909094e-01 5.9090906e-01 0.0000000e+00 
5.9090906e-01 9.0909094e-01 0.0000000e+00 
7.2727275e-01 6.8181819e-01 0.0000000e+00 
6.8181819e-01 7.2727275e-01 0.0000000e+00 
6.3636363e-01 7.7272725e-01 0.0000000e+00 
7.7272725e-01 6.3636363e-01 0.0000000e+00 
5.9090906e-01 8.6363637e-01 0.0000000e+00 
8.6363637e-01 5.9090906e-01 0.0000000e+00 
8.1818181e-01 5.9090906e-01 0.0000000e+00 
5.9090906e-01 8.1818181e-01 0.0000000e+00 
6.8181819e-01 6.8181819e-01 0.0000000e+00 
6.3636363e-01 7.2727275e-01 0.0000000e+00 
7.2727275e-01 6.3636363e-01 0.0000000e+00 
1.0000000e+00 5.4545456e-01 0.0000000e+00 
5.4545456e-01 1.0000000e+00 0.0000000e+00 
5.4545456e-01 9.5454544e-01 0.0000000e+00 
9.5454544e-01 5.4545456e-01 0.0000000e+00 
5.4545456e-01 9.0909094e-01 0.0000000e+00 
9.0909094e-01 5.4545456e-01 0.0000000e+00 
5.9090906e-01 7.7272725e-01 0.0000000e+00 
7.7272725e-01 5.9090906e-01 0.0000000e+00 
8.6363637e-01 5.4545456e-01 0.0000000e+00 
5.4545456e-01 8.6363637e-01 0.0000000e+00 
6.8181819e-01 6.3636363e-01 0.0000000e+00 
6.3636363e-01 6.8181819e-01 0.0000000e+00 
5.4545456e-01 8.1818181e-01 0.0000000e+00 
8.1818181e-01 5.4545456e-01 0.0000000e+00 
7.2727275e-01 5.9090906e-01 0.0000000e+00 
5.9090906e-01 7.2727275e-01 0.0000000e+00 
1.0000000e+00 5.0000000e-01 0.0000000e+00 
5.0000000e-01 1.0000000e+00 0.0000000e+00 
5.0000000e-01 9.5454544e-01 0.0000000e+00 
9.5454544e-01 5.0000000e-01 0.0000000e+00 
5.4545456e-01 7.7272725e-01 0.0000000e+00 
7.7272725e-01 5.4545456e-01 0.0000000e+00 
5.0000000e-01 9.0909094e-01 0.0000000e+00 
9.0909094e-01 5.0000000e-01 0.0000000e+00 
6.3636363e-01 6.3636363e-01 0.0000000e+00 
5.9090906e-01 6.8181819e-01 0.0000000e+00 
6.8181819e-01 5.9090906e-01 0.0000000e+00 
5.0000000e-01 8.6363637e-01 0.0000000e+00 
8.6363637e-01 5.0000000e-01 0.0000000e+00 
5.4545456e-01 7.2727275e-01 0.0000000e+00 
7.2727275e-01 5.4545456e-01 0.0000000e+00 
8.1818181e-01 5.0000000e-01 0.0000000e+00 
5.0000000e-01 8.1818181e-01 0.0000000e+00 
4.5454547e-01 1.0000000e+00 0.0000000e+00 
1.0000000e+00 4.5454547e-01 0.0000000e+00 
5.9090906e-01 6.3636363e-01 0.0000000e+00 
6.3636363e-01 5.9090906e-01 0.0000000e+00 
4.5454547e-01 9.5454544e-01 0.0000000e+00 
9.5454544e-01 4.5454547e-01 0.0000000e+00 
5.0000000e-01 7.7272725e-01 0.0000000e+00 
7.7272725e-01 5.0000000e-01 0.0000000e+00 
9.0909094e-01 4.5454547e-01 0.0000000e+00 
4.5454547e-01 9.0909094e-01 0.0000000e+00 
6.8181819e-01 5.4545456e-01 0.0000000e+00 
5.4545456e-01 6.8181819e-01 0.0000000e+00 
8.6363637e-01 4.5454547e-01 0.0000000e+00 
4.5454547e-01 8.6363637e-01 0.0000000e+00 
7.2727275e-01 5.0000000e-01 0.0000000e+00 
5.0000000e-01 7.2727275e-01 0.0000000e+00 
8.1818181e-01 4.5454547e-01 0.0000000e+00 
4.5454547e-01 8.1818181e-01 0.0000000e+00 
5.9090906e-01 5.9090906e-01 0.0000000e+00 
5.4545456e-01 6.3636363e-01 0.0000000e+00 
6.3636363e-01 5.4545456e-01 0.0000000e+00 
1.0000000e+00 4.0909091e-01 0.0000000e+00 
4.0909091e-01 1.0000000e+00 0.0000000e+00 
7.7272725e-01 4.5454547e-01 0.0000000e+00 
4.5454547e-01 7.7272725e-01 0.0000000e+00 
9.5454544e-01 4.0909091e-01 0.0000000e+00 
4.0909091e-01 9.5454544e-01 0.0000000e+00 
6.8181819e-01 5.0000000e-01 0.0000000e+00 
5.0000000e-01 6.8181819e-01 0.0000000e+00 
9.0909094e-01 4.0909091e-01 0.0000000e+00 
4.0909091e-01 9.0909094e-01 0.0000000e+00 
4.0909091e-01 8.6363637e-01 0.0000000e+00 
8.6363637e-01 4.0909091e-01 0.0000000e+00 
7.2727275e-01 4.5454547e-01 0.0000000e+00 
4.5454547e-01 7.2727275e-01 0.0000000e+00 
5.4545456e-01 5.9090906e-01 0.0000000e+00 
5.9090906e-01 5.4545456e-01 0.0000000e+00 
6.3636363e-01 5.0000000e-01 0.0000000e+00 
5.0000000e-01 6.3636363e-01 0.0000000e+00 
4.0909091e-01 8.1818181e-01 0.0000000e+00 
8.1818181e-01 4.0909091e-01 0.0000000e+00 
6.8181819e-01 4.5454547e-01 0.0000000e+00 
4.5454547e-01 6.8181819e-01 0.0000000e+00 
7.7272725e-01 4.0909091e-01 0.0000000e+00 
4.0909091e-01 7.7272725e-01 0.0000000e+00 
1.0000000e+00 3.6363637e-01 0.0000000e+00 
3.6363637e-01 1.0000000e+00 0.0000000e+00 
3.6363637e-01 9.5454544e-01 0.0000000e+00 
9.5454544e-01 3.6363637e-01 0.0000000e+00 
5.4545456e-01 5.4545456e-01 0.0000000e+00 
9.0909094e-01 3.6363637e-01 0.0000000e+00 
3.6363637e-01 9.0909094e-01 0.0000000e+00 
5.9090906e-01 5.0000000e-01 0.0000000e+00 
5.0000000e-01 5.9090906e-01 0.0000000e+00 
3.6363637e-01 8.6363637e-01 0.0000000e+00 
7.2727275e-01 4.0909091e-01 0.0000000e+00 
4.0909091e-01 7.2727275e-01 0.0000000e+00 
8.6363637e-01 3.6363637e-01 0.0000000e+00 
6.3636363e-01 4.5454547e-01 0.0000000e+00 
4.5454547e-01 6.3636363e-01 0.0000000e+00 
3.6363637e-01 8.1818181e-01 0.0000000e+00 
8.1818181e-01 3.6363637e-01 0.0000000e+00 
6.8181819e-01 4.0909091e-01 0.0000000e+00 
4.0909091e-01 6.8181819e-01 0.0000000e+00 
5.4545456e-01 5.0000000e-01 0.0000000e+00 
5.0000000e-01 5.4545456e-01 0.0000000e+00 
7.7272725e-01 3.6363637e-01 0.0000000e+00 
3.6363637e-01 7.7272725e-01 0.0000000e+00 
5.9090906e-01 4.5454547e-01 0.0000000e+00 
4.5454547e-01 5.9090906e-01 0.0000000e+00 
3.1818181e-01 1.0000000e+00 0.0000000e+00 
1.0000000e+00 3.1818181e-01 0.0000000e+00 
3.1818181e-01 9.5454544e-01 0.0000000e+00 
9.5454544e-01 3.1818181e-01 0.0000000e+00 
3.1818181e-01 9.0909094e-01 0.0000000e+00 
9.0909094e-01 3.1818181e-01 0.0000000e+00 
3.6363637e-01 7.2727275e-01 0.0000000e+00 
7.2727275e-01 3.6363637e-01 0.0000000e+00 
6.3636363e-01 4.0909091e-01 0.0000000e+00 
4.0909091e-01 6.3636363e-01 0.0000000e+00 
8.6363637e-01 3.1818181e-01 0.0000000e+00 
3.1818181e-01 8.6363637e-01 0.0000000e+00 
3.1818181e-01 8.1818181e-01 0.0000000e+00 
8.1818181e-01 3.1818181e-01 0.0000000e+00 
5.0000000e-01 5.0000000e-01 0.0000000e+00 
5.4545456e-01 4.5454547e-01 0.0000000e+00 
4.5454547e-01 5.4545456e-01 0.0000000e+00 
6.8181819e-01 3.6363637e-01 0.0000000e+00 
3.6363637e-01 6.8181819e-01 0.0000000e+00 
5.9090906e-01 4.0909091e-01 0.0000000e+00 
4.0909091e-01 5.9090906e-01 0.0000000e+00 
7.7272725e-01 3.1818181e-01 0.0000000e+00 
3.1818181e-01 7.7272725e-01 0.0000000e+00 
1.0000000e+00 2.7272728e-01 0.0000000e+00 
2.7272728e-01 1.0000000e+00 0.0000000e+00 
9.5454544e-01 2.7272728e-01 0.0000000e+00 
2.7272728e-01 9.5454544e-01 0.0000000e+00 
6.3636363e-01 3.6363637e-01 0.0000000e+00 
9.0909094e-01 2.7272728e-01 0.0000000e+00 
2.7272728e-01 9.0909094e-01 0.0000000e+00 
3.6363637e-01 6.3636363e-01 0.0000000e+00 
7.2727275e-01 3.1818181e-01 0.0000000e+00 
3.1818181e-01 7.2727275e-01 0.0000000e+00 
5.0000000e-01 4.5454547e-01 0.0000000e+00 
8.6363637e-01 2.7272728e-01 0.0000000e+00 
2.7272728e-01 8.6363637e-01 0.0000000e+00 
4.5454547e-01 5.0000000e-01 0.0000000e+00 
5.4545456e-01 4.0909091e-01 0.0000000e+00 
4.0909091e-01 5.4545456e-01 0.0000000e+00 
[...]
POINT_DATA 529
FIELD FieldData 1
TEMPERATURE 1 529  float
-1.2246469e-16
-1.4231484e-01
0.0000000e+00
-1.4057331e-01
0.0000000e+00
-2.8173256e-01
-1.3600755e-01
-2.7830350e-01
-2.6928172e-01
-4.1541502e-01
0.0000000e+00
-1.2870765e-01
-4.1038105e-01
-2.5484365e-01
-3.9709666e-01
-5.4064083e-01
0.0000000e+00
-5.3411448e-01
-1.1882292e-01
-3.7581766e-01
-5.1684421e-01
-2.3528336e-01
-6.5486073e-01
0.0000000e+00
-3.4697285e-01
-4.8915482e-01
-6.4698595e-01
-1.0656025e-01
-6.2608922e-01
-2.1101044e-01
-4.5159331e-01
-3.1116337e-01
-5.9255260e-01
-7.5574958e-01
0.0000000e+00
-9.2179731e-02
-7.4670196e-01
-1.8254493e-01
-7.2261882e-01
-5.4701990e-01
-4.0492758e-01
-2.6916352e-01
-6.8392932e-01
0.0000000e+00
-8.4125352e-01
-7.5984485e-02
-8.3123749e-01
-4.9038571e-01
-6.3135791e-01
-3.5015574e-01
-8.0448204e-01
-1.5050268e-01
-7.6145405e-01
-2.2192167e-01
-4.2377648e-01
-5.6590778e-01
0.0000000e+00
-9.0963197e-01
-5.8298763e-02
-2.8856319e-01
-7.0294452e-01
-8.9887303e-01
-8.7002343e-01
-1.1555187e-01
-4.8871985e-01
-8.2357436e-01
-1.7052083e-01
-3.4861752e-01
-6.3016266e-01
-7.6025474e-01
-2.2187462e-01
0.0000000e+00
-9.5949298e-01
-3.9434623e-02
-9.4822109e-01
-7.8315340e-02
-9.1791165e-01
-3.9986938e-01
-5.4541463e-01
-6.8075359e-01
-2.6806891e-01
-8.6915606e-01
-1.1591256e-01
-1.5140912e-01
-8.0286056e-01
-4.5150131e-01
-5.9498870e-01
-3.1160697e-01
0.0000000e+00
-9.8982143e-01
-9.7823048e-01
-1.9678276e-02
-9.4705313e-01
-3.9323390e-02
-7.2005272e-01
-1.8358369e-01
-5.8835126e-02
-8.9702517e-01
-3.5037491e-01
-4.9790773e-01
-8.2938415e-01
-7.8257836e-02
-2.1741796e-01
-6.3314492e-01
0.0000000e+00
-1.0000000e+00
-9.8823297e-01
6.8362494e-04
-7.4557298e-01
-9.6886203e-02
-9.5666897e-01
9.8130095e-04
-3.8943914e-01
-5.3550118e-01
-2.4800310e-01
-9.0612924e-01
3.7736783e-04
-6.5800852e-01
-1.1740853e-01
-2.9441379e-03
-8.3843851e-01
-9.8982143e-01
0.0000000e+00
0.0000000e+00
0.0000000e+00
-9.7802842e-01
2.1249786e-02
-7.5825214e-01
-1.6274014e-02
4.2011477e-02
-9.4648224e-01
0.0000000e+00
0.0000000e+00
6.2140465e-02
-8.9562106e-01
-2.1776579e-02
-6.7018437e-01
8.2223512e-02
-8.2598895e-01
0.0000000e+00
0.0000000e+00
0.0000000e+00
0.0000000e+00
-9.5949298e-01
1.0623299e-01
-7.3726678e-01
4.1305643e-02
-9.4797629e-01
0.0000000e+00
0.0000000e+00
8.1879586e-02
-9.1721958e-01
-8.6748385e-01
1.2139488e-01
1.1905739e-01
-6.4714974e-01
0.0000000e+00
0.0000000e+00
0.0000000e+00
0.0000000e+00
-7.9896182e-01
1.6020228e-01
0.0000000e+00
0.0000000e+00
2.0033774e-01
-7.1085250e-01
0.0000000e+00
-9.0963197e-01
-8.9877331e-01
6.0298428e-02
0.0000000e+00
1.1942945e-01
-8.6971378e-01
0.0000000e+00
0.0000000e+00
-8.2283759e-01
2.2721659e-01
-6.2115479e-01
1.7646691e-01
0.0000000e+00
0.0000000e+00
-7.5887161e-01
2.3054890e-01
0.0000000e+00
0.0000000e+00
0.0000000e+00
0.0000000e+00
2.8037816e-01
-6.7920393e-01
0.0000000e+00
0.0000000e+00
-8.4125352e-01
0.0000000e+00
-8.3137143e-01
7.7903993e-02
-8.0472928e-01
1.5418263e-01
-5.8790863e-01
3.2145363e-01
0.0000000e+00
0.0000000e+00
2.2736807e-01
-7.6180834e-01
-7.0351475e-01
2.9593086e-01
0.0000000e+00
0.0000000e+00
0.0000000e+00
3.5695899e-01
-4.9176583e-01
0.0000000e+00
0.0000000e+00
3.5805163e-01
-6.3134915e-01
0.0000000e+00
-7.5574958e-01
9.3872450e-02
-7.4706179e-01
0.0000000e+00
1.8572491e-01
-7.2337312e-01
0.0000000e+00
4.1131833e-01
-5.4765511e-01
0.0000000e+00
2.7367452e-01
-6.8518335e-01
0.0000000e+00
0.0000000e+00
0.0000000e+00
-6.3337404e-01
3.5581183e-01
4.5446974e-01
-4.5442161e-01
0.0000000e+00
0.0000000e+00
-5.6926256e-01
4.3015358e-01
0.0000000e+00
0.0000000e+00
4.9192080e-01
-6.5486073e-01
-3.5698292e-01
-6.4750296e-01
1.0795701e-01
0.0000000e+00
0.0000000e+00
4.9468392e-01
-4.9460107e-01
2.1358047e-01
-6.2717742e-01
0.0000000e+00
0.0000000e+00
3.1467244e-01
-5.9434432e-01
-5.4977524e-01
5.4780114e-01
-4.1129062e-01
4.0906286e-01
0.0000000e+00
0.0000000e+00
0.0000000e+00
0.0000000e+00
-4.9456361e-01
4.9463019e-01
0.0000000e+00
0.0000000e+00
-3.2149374e-01
5.8818281e-01
-5.4064083e-01
0.0000000e+00
-5.3469509e-01
5.6936979e-01
-4.3010315e-01
0.0000000e+00
1.1990929e-01
0.0000000e+00
-5.1805586e-01
2.3724695e-01
-4.9110883e-01
3.4957421e-01
6.2166780e-01
-2.2726294e-01
6.3152814e-01
-3.5803163e-01
0.0000000e+00
0.0000000e+00
4.5452252e-01
0.0000000e+00
-4.5447907e-01
0.0000000e+00
0.0000000e+00
-4.0902063e-01
5.4984164e-01
-2.8039190e-01
6.7951655e-01
6.4796245e-01
-1.1906599e-01
6.3347453e-01
-3.5577959e-01
-4.1541502e-01
0.0000000e+00
1.2949634e-01
-4.1093102e-01
0.0000000e+00
-3.9823329e-01
2.5624982e-01
0.0000000e+00
0.0000000e+00
0.0000000e+00
-2.0037100e-01
7.1143454e-01
3.7764069e-01
-3.7761629e-01
7.0366490e-01
-2.9591528e-01
2.1767024e-02
4.9114627e-01
-3.4954649e-01
6.6855133e-01
-3.1464583e-01
5.9439939e-01
7.5908715e-01
-2.3055048e-01
7.3798239e-01
-1.0623509e-01
3.8942850e-01
2.4800324e-01
5.3556150e-01
6.8526155e-01
-2.7365375e-01
0.0000000e+00
-2.8173256e-01
6.5778768e-01
1.1740343e-01
-2.7873865e-01
1.3651881e-01
-2.7017388e-01
2.7018473e-01
7.9923189e-01
-1.6021299e-01
-2.5623518e-01
3.9825115e-01
7.6191390e-01
1.6265018e-02
7.5685835e-01
-2.2735640e-01
-2.3723051e-01
5.1808268e-01
3.5037300e-01
4.9794668e-01
8.2614648e-01
-8.2228690e-02
6.3321704e-01
8.2296687e-01
6.2721562e-01
2.1741998e-01
-2.1356474e-01
-1.7646435e-01
9.6881568e-02
7.4524611e-01
7.2342467e-01
-1.8571235e-01
0.0000000e+00
-1.4231484e-01
8.6760890e-01
-1.2139770e-01
1.4082426e-01
-1.4082155e-01
2.9392154e-03
8.3804101e-01
2.7874437e-01
-1.3651371e-01
8.0479383e-01
-1.5417485e-01
4.5149869e-01
4.1094041e-01
-1.2948950e-01
5.9506649e-01
3.1161022e-01
-1.1990164e-01
5.3470904e-01
1.8358372e-01
7.2009075e-01
-6.2143438e-02
8.9566308e-01
8.6978483e-01
-1.1942647e-01
-1.0794968e-01
6.4752233e-01
7.8255013e-02
8.2915968e-01
-9.3866505e-02
7.4708712e-01
-8.1879765e-02
9.1727841e-01
3.9987031e-01
5.4545546e-01
-3.8005944e-04
9.0599972e-01
-0.0000000e+00
1.2246469e-16
1.4231484e-01
6.8085897e-01
0.0000000e+00
2.6807216e-01
2.8173256e-01
0.0000000e+00
8.3140171e-01
-7.7900112e-02
8.0280328e-01
1.5140896e-01
4.1541502e-01
0.0000000e+00
-4.2012673e-02
9.4649738e-01
5.4064083e-01
0.0000000e+00
5.8833539e-02
8.9690900e-01
8.9880466e-01
-6.0296632e-02
6.5486073e-01
0.0000000e+00
4.8873889e-01
6.3020986e-01
3.4862235e-01
0.0000000e+00
7.5574958e-01
2.2187683e-01
7.6026803e-01
-9.8258816e-04
9.5662278e-01
-4.1305322e-02
9.4800031e-01
1.1591252e-01
8.6910021e-01
8.4125352e-01
0.0000000e+00
9.7803432e-01
-2.1250125e-02
3.9322607e-02
9.4699812e-01
4.2378739e-01
5.6593120e-01
9.0963197e-01
0.0000000e+00
7.0296365e-01
2.8856739e-01
1.7052235e-01
8.2356018e-01
-6.8410701e-04
9.8821741e-01
0.0000000e+00
9.5949298e-01
7.8315392e-02
9.1787583e-01
4.9039876e-01
6.3137251e-01
3.5016254e-01
9.8982143e-01
0.0000000e+00
1.9677974e-02
9.7820866e-01
2.2192462e-01
7.6145566e-01
8.7000763e-01
1.1555284e-01
1.0000000e+00
0.0000000e+00
9.4820446e-01
3.9434679e-02
5.4702985e-01
4.0493542e-01
6.8393499e-01
2.6916778e-01
1.5050450e-01
8.0447793e-01
9.8982143e-01
0.0000000e+00
5.8299236e-02
8.9886409e-01
4.5159996e-01
5.9255826e-01
3.1116816e-01
9.5949298e-01
0.0000000e+00
7.2261971e-01
1.8254745e-01
7.5985350e-02
8.3123410e-01
9.0963197e-01
0.0000000e+00
3.4697714e-01
4.8915932e-01
6.2609166e-01
2.1101324e-01
7.4670154e-01
9.2180900e-02
0.0000000e+00
8.4125352e-01
3.7582085e-01
5.1684672e-01
2.3528595e-01
6.4698672e-01
1.0656154e-01
7.5574958e-01
0.0000000e+00
2.5484568e-01
3.9709866e-01
5.3411549e-01
1.1882413e-01
6.5486073e-01
0.0000000e+00
2.6928306e-01
4.1038197e-01
1.2870862e-01
0.0000000e+00
5.4064083e-01
1.3600820e-01
2.7830413e-01
0.0000000e+00
4.1541502e-01
1.4057362e-01
0.0000000e+00
2.8173256e-01
0.0000000e+00
1.4231484e-01
0.0000000e+00
CELL_DATA 968
FIELD FieldData 0
