# vtk DataFile Version 4.0
vtk output
ASCII
DATASET UNSTRUCTURED_GRID
POINTS 9216 float
1.0000000e+00 0.0000000e+00 0.0000000e+00 
1.0000000e+00 1.0526316e-02 0.0000000e+00 
9.8947370e-01 0.0000000e+00 0.0000000e+00 
9.8947370e-01 1.0526316e-02 0.0000000e+00 
9.7894734e-01 0.0000000e+00 0.0000000e+00 
1.0000000e+00 2.1052632e-02 0.0000000e+00 
9.8947370e-01 2.1052632e-02 0.0000000e+00 
9.7894734e-01 1.0526316e-02 0.0000000e+00 
9.7894734e-01 2.1052632e-02 0.0000000e+00 
9.6842104e-01 0.0000000e+00 0.0000000e+00 
1.0000000e+00 3.1578947e-02 0.0000000e+00 
9.8947370e-01 3.1578947e-02 0.0000000e+00 
9.6842104e-01 1.0526316e-02 0.0000000e+00 
9.7894734e-01 3.1578947e-02 0.0000000e+00 
9.6842104e-01 2.1052632e-02 0.0000000e+00 
1.0000000e+00 4.2105265e-02 0.0000000e+00 
9.5789474e-01 0.0000000e+00 0.0000000e+00 
9.8947370e-01 4.2105265e-02 0.0000000e+00 
9.5789474e-01 1.0526316e-02 0.0000000e+00 
9.6842104e-01 3.1578947e-02 0.0000000e+00 
9.5789474e-01 2.1052632e-02 0.0000000e+00 
9.7894734e-01 4.2105265e-02 0.0000000e+00 
9.6842104e-01 4.2105265e-02 0.0000000e+00 
1.0000000e+00 5.2631579e-02 0.0000000e+00 
9.5789474e-01 3.1578947e-02 0.0000000e+00 
9.4736844e-01 0.0000000e+00 0.0000000e+00 
9.8947370e-01 5.2631579e-02 0.0000000e+00 
9.4736844e-01 1.0526316e-02 0.0000000e+00 
9.4736844e-01 2.1052632e-02 0.0000000e+00 
9.7894734e-01 5.2631579e-02 0.0000000e+00 
9.5789474e-01 4.2105265e-02 0.0000000e+00 
9.6842104e-01 5.2631579e-02 0.0000000e+00 
9.4736844e-01 3.1578947e-02 0.0000000e+00 
9.3684208e-01 0.0000000e+00 0.0000000e+00 
1.0000000e+00 6.3157894e-02 0.0000000e+00 
9.3684208e-01 1.0526316e-02 0.0000000e+00 
9.8947370e-01 6.3157894e-02 0.0000000e+00 
9.3684208e-01 2.1052632e-02 0.0000000e+00 
9.7894734e-01 6.3157894e-02 0.0000000e+00 
9.5789474e-01 5.2631579e-02 0.0000000e+00 
9.4736844e-01 4.2105265e-02 0.0000000e+00 
9.3684208e-01 3.1578947e-02 0.0000000e+00 
9.6842104e-01 6.3157894e-02 0.0000000e+00 
1.0000000e+00 7.3684208e-02 0.0000000e+00 
9.2631578e-01 0.0000000e+00 0.0000000e+00 
9.4736844e-01 5.2631579e-02 0.0000000e+00 
9.8947370e-01 7.3684208e-02 0.0000000e+00 
9.2631578e-01 1.0526316e-02 0.0000000e+00 
9.5789474e-01 6.3157894e-02 0.0000000e+00 
9.3684208e-01 4.2105265e-02 0.0000000e+00 
9.7894734e-01 7.3684208e-02 0.0000000e+00 
9.2631578e-01 2.1052632e-02 0.0000000e+00 
9.6842104e-01 7.3684208e-02 0.0000000e+00 
9.2631578e-01 3.1578947e-02 0.0000000e+00 
9.4736844e-01 6.3157894e-02 0.0000000e+00 
9.3684208e-01 5.2631579e-02 0.0000000e+00 
1.0000000e+00 8.4210530e-02 0.0000000e+00 
9.1578948e-01 0.0000000e+00 0.0000000e+00 
9.1578948e-01 1.0526316e-02 0.0000000e+00 
9.8947370e-01 8.4210530e-02 0.0000000e+00 
9.2631578e-01 4.2105265e-02 0.0000000e+00 
9.5789474e-01 7.3684208e-02 0.0000000e+00 
9.1578948e-01 2.1052632e-02 0.0000000e+00 
9.7894734e-01 8.4210530e-02 0.0000000e+00 
9.3684208e-01 6.3157894e-02 0.0000000e+00 
9.1578948e-01 3.1578947e-02 0.0000000e+00 
9.6842104e-01 8.4210530e-02 0.0000000e+00 
9.2631578e-01 5.2631579e-02 0.0000000e+00 
9.4736844e-01 7.3684208e-02 0.0000000e+00 
9.1578948e-01 4.2105265e-02 0.0000000e+00 
9.5789474e-01 8.4210530e-02 0.0000000e+00 
9.0526319e-01 0.0000000e+00 0.0000000e+00 
1.0000000e+00 9.4736844e-02 0.0000000e+00 
9.0526319e-01 1.0526316e-02 0.0000000e+00 
9.8947370e-01 9.4736844e-02 0.0000000e+00 
9.2631578e-01 6.3157894e-02 0.0000000e+00 
9.0526319e-01 2.1052632e-02 0.0000000e+00 
9.3684208e-01 7.3684208e-02 0.0000000e+00 
9.7894734e-01 9.4736844e-02 0.0000000e+00 
9.1578948e-01 5.2631579e-02 0.0000000e+00 
9.4736844e-01 8.4210530e-02 0.0000000e+00 
9.0526319e-01 3.1578947e-02 0.0000000e+00 
9.6842104e-01 9.4736844e-02 0.0000000e+00 
9.0526319e-01 4.2105265e-02 0.0000000e+00 
9.5789474e-01 9.4736844e-02 0.0000000e+00 
9.2631578e-01 7.3684208e-02 0.0000000e+00 
9.1578948e-01 6.3157894e-02 0.0000000e+00 
8.9473683e-01 0.0000000e+00 0.0000000e+00 
1.0000000e+00 1.0526316e-01 0.0000000e+00 
9.3684208e-01 8.4210530e-02 0.0000000e+00 
9.8947370e-01 1.0526316e-01 0.0000000e+00 
8.9473683e-01 1.0526316e-02 0.0000000e+00 
9.7894734e-01 1.0526316e-01 0.0000000e+00 
8.9473683e-01 2.1052632e-02 0.0000000e+00 
9.0526319e-01 5.2631579e-02 0.0000000e+00 
9.4736844e-01 9.4736844e-02 0.0000000e+00 
8.9473683e-01 3.1578947e-02 0.0000000e+00 
9.6842104e-01 1.0526316e-01 0.0000000e+00 
9.1578948e-01 7.3684208e-02 0.0000000e+00 
9.2631578e-01 8.4210530e-02 0.0000000e+00 
8.9473683e-01 4.2105265e-02 0.0000000e+00 
9.5789474e-01 1.0526316e-01 0.0000000e+00 
9.0526319e-01 6.3157894e-02 0.0000000e+00 
9.3684208e-01 9.4736844e-02 0.0000000e+00 
1.0000000e+00 1.1578947e-01 0.0000000e+00 
8.8421053e-01 0.0000000e+00 0.0000000e+00 
9.8947370e-01 1.1578947e-01 0.0000000e+00 
8.8421053e-01 1.0526316e-02 0.0000000e+00 
8.8421053e-01 2.1052632e-02 0.0000000e+00 
9.4736844e-01 1.0526316e-01 0.0000000e+00 
8.9473683e-01 5.2631579e-02 0.0000000e+00 
9.7894734e-01 1.1578947e-01 0.0000000e+00 
9.1578948e-01 8.4210530e-02 0.0000000e+00 
8.8421053e-01 3.1578947e-02 0.0000000e+00 
9.0526319e-01 7.3684208e-02 0.0000000e+00 
9.6842104e-01 1.1578947e-01 0.0000000e+00 
9.2631578e-01 9.4736844e-02 0.0000000e+00 
9.3684208e-01 1.0526316e-01 0.0000000e+00 
8.9473683e-01 6.3157894e-02 0.0000000e+00 
8.8421053e-01 4.2105265e-02 0.0000000e+00 
9.5789474e-01 1.1578947e-01 0.0000000e+00 
8.7368423e-01 0.0000000e+00 0.0000000e+00 
1.0000000e+00 1.2631579e-01 0.0000000e+00 
8.7368423e-01 1.0526316e-02 0.0000000e+00 
9.1578948e-01 9.4736844e-02 0.0000000e+00 
9.8947370e-01 1.2631579e-01 0.0000000e+00 
9.0526319e-01 8.4210530e-02 0.0000000e+00 
8.8421053e-01 5.2631579e-02 0.0000000e+00 
9.4736844e-01 1.1578947e-01 0.0000000e+00 
8.7368423e-01 2.1052632e-02 0.0000000e+00 
9.7894734e-01 1.2631579e-01 0.0000000e+00 
9.2631578e-01 1.0526316e-01 0.0000000e+00 
8.9473683e-01 7.3684208e-02 0.0000000e+00 
8.7368423e-01 3.1578947e-02 0.0000000e+00 
9.6842104e-01 1.2631579e-01 0.0000000e+00 
8.8421053e-01 6.3157894e-02 0.0000000e+00 
9.3684208e-01 1.1578947e-01 0.0000000e+00 
8.7368423e-01 4.2105265e-02 0.0000000e+00 
9.5789474e-01 1.2631579e-01 0.0000000e+00 
9.0526319e-01 9.4736844e-02 0.0000000e+00 
9.1578948e-01 1.0526316e-01 0.0000000e+00 
8.9473683e-01 8.4210530e-02 0.0000000e+00 
8.7368423e-01 5.2631579e-02 0.0000000e+00 
9.4736844e-01 1.2631579e-01 0.0000000e+00 
8.6315787e-01 0.0000000e+00 0.0000000e+00 
1.0000000e+00 1.3684210e-01 0.0000000e+00 
8.6315787e-01 1.0526316e-02 0.0000000e+00 
9.8947370e-01 1.3684210e-01 0.0000000e+00 
8.8421053e-01 7.3684208e-02 0.0000000e+00 
9.2631578e-01 1.1578947e-01 0.0000000e+00 
8.6315787e-01 2.1052632e-02 0.0000000e+00 
9.7894734e-01 1.3684210e-01 0.0000000e+00 
8.6315787e-01 3.1578947e-02 0.0000000e+00 
9.6842104e-01 1.3684210e-01 0.0000000e+00 
8.7368423e-01 6.3157894e-02 0.0000000e+00 
9.3684208e-01 1.2631579e-01 0.0000000e+00 
9.0526319e-01 1.0526316e-01 0.0000000e+00 
8.9473683e-01 9.4736844e-02 0.0000000e+00 
8.6315787e-01 4.2105265e-02 0.0000000e+00 
8.8421053e-01 8.4210530e-02 0.0000000e+00 
9.1578948e-01 1.1578947e-01 0.0000000e+00 
9.5789474e-01 1.3684210e-01 0.0000000e+00 
8.7368423e-01 7.3684208e-02 0.0000000e+00 
9.2631578e-01 1.2631579e-01 0.0000000e+00 
8.6315787e-01 5.2631579e-02 0.0000000e+00 
9.4736844e-01 1.3684210e-01 0.0000000e+00 
1.0000000e+00 1.4736842e-01 0.0000000e+00 
8.5263157e-01 0.0000000e+00 0.0000000e+00 
9.8947370e-01 1.4736842e-01 0.0000000e+00 
8.5263157e-01 1.0526316e-02 0.0000000e+00 
8.5263157e-01 2.1052632e-02 0.0000000e+00 
9.7894734e-01 1.4736842e-01 0.0000000e+00 
8.9473683e-01 1.0526316e-01 0.0000000e+00 
8.8421053e-01 9.4736844e-02 0.0000000e+00 
9.0526319e-01 1.1578947e-01 0.0000000e+00 
8.6315787e-01 6.3157894e-02 0.0000000e+00 
9.6842104e-01 1.4736842e-01 0.0000000e+00 
9.3684208e-01 1.3684210e-01 0.0000000e+00 
8.5263157e-01 3.1578947e-02 0.0000000e+00 
8.7368423e-01 8.4210530e-02 0.0000000e+00 
9.1578948e-01 1.2631579e-01 0.0000000e+00 
9.5789474e-01 1.4736842e-01 0.0000000e+00 
8.5263157e-01 4.2105265e-02 0.0000000e+00 
8.6315787e-01 7.3684208e-02 0.0000000e+00 
9.2631578e-01 1.3684210e-01 0.0000000e+00 
8.8421053e-01 1.0526316e-01 0.0000000e+00 
9.4736844e-01 1.4736842e-01 0.0000000e+00 
8.5263157e-01 5.2631579e-02 0.0000000e+00 
8.9473683e-01 1.1578947e-01 0.0000000e+00 
8.7368423e-01 9.4736844e-02 0.0000000e+00 
9.0526319e-01 1.2631579e-01 0.0000000e+00 
1.0000000e+00 1.5789473e-01 0.0000000e+00 
8.4210527e-01 0.0000000e+00 0.0000000e+00 
8.4210527e-01 1.0526316e-02 0.0000000e+00 
9.8947370e-01 1.5789473e-01 0.0000000e+00 
8.4210527e-01 2.1052632e-02 0.0000000e+00 
9.7894734e-01 1.5789473e-01 0.0000000e+00 
9.3684208e-01 1.4736842e-01 0.0000000e+00 
8.5263157e-01 6.3157894e-02 0.0000000e+00 
9.1578948e-01 1.3684210e-01 0.0000000e+00 
8.6315787e-01 8.4210530e-02 0.0000000e+00 
8.4210527e-01 3.1578947e-02 0.0000000e+00 
9.6842104e-01 1.5789473e-01 0.0000000e+00 
8.4210527e-01 4.2105265e-02 0.0000000e+00 
9.5789474e-01 1.5789473e-01 0.0000000e+00 
8.8421053e-01 1.1578947e-01 0.0000000e+00 
8.7368423e-01 1.0526316e-01 0.0000000e+00 
8.9473683e-01 1.2631579e-01 0.0000000e+00 
9.2631578e-01 1.4736842e-01 0.0000000e+00 
8.5263157e-01 7.3684208e-02 0.0000000e+00 
8.4210527e-01 5.2631579e-02 0.0000000e+00 
9.0526319e-01 1.3684210e-01 0.0000000e+00 
9.4736844e-01 1.5789473e-01 0.0000000e+00 
8.6315787e-01 9.4736844e-02 0.0000000e+00 
8.3157897e-01 0.0000000e+00 0.0000000e+00 
1.0000000e+00 1.6842106e-01 0.0000000e+00 
9.8947370e-01 1.6842106e-01 0.0000000e+00 
8.3157897e-01 1.0526316e-02 0.0000000e+00 
9.7894734e-01 1.6842106e-01 0.0000000e+00 
9.1578948e-01 1.4736842e-01 0.0000000e+00 
8.5263157e-01 8.4210530e-02 0.0000000e+00 
8.3157897e-01 2.1052632e-02 0.0000000e+00 
8.4210527e-01 6.3157894e-02 0.0000000e+00 
9.3684208e-01 1.5789473e-01 0.0000000e+00 
8.7368423e-01 1.1578947e-01 0.0000000e+00 
8.8421053e-01 1.2631579e-01 0.0000000e+00 
9.6842104e-01 1.6842106e-01 0.0000000e+00 
8.3157897e-01 3.1578947e-02 0.0000000e+00 
8.6315787e-01 1.0526316e-01 0.0000000e+00 
8.9473683e-01 1.3684210e-01 0.0000000e+00 
[...]
POINT_DATA 9216
FIELD FieldData 1
TEMPERATURE 1 9216  float
1.2246469e-16
0.0000000e+00
3.3063371e-02
3.3045232e-02
6.6090584e-02
0.0000000e+00
3.2990970e-02
6.6054337e-02
6.5945864e-02
9.9045530e-02
0.0000000e+00
3.2900639e-02
9.8991208e-02
6.5765299e-02
9.8828651e-02
0.0000000e+00
1.3189217e-01
3.2774337e-02
1.3181983e-01
9.8558053e-02
1.3160338e-01
6.5512836e-02
9.8179698e-02
0.0000000e+00
1.3124304e-01
1.6459459e-01
3.2612201e-02
1.6450430e-01
1.6423418e-01
6.5188743e-02
1.3073920e-01
9.7694002e-02
1.6378449e-01
1.9711703e-01
0.0000000e+00
1.9700891e-01
3.2414410e-02
1.9668540e-01
6.4793378e-02
1.3009243e-01
1.6315573e-01
1.9614686e-01
9.7101495e-02
0.0000000e+00
2.2942393e-01
1.6234861e-01
3.2181181e-02
2.2929808e-01
1.2930343e-01
1.9539388e-01
6.4327173e-02
2.2892156e-01
9.6402824e-02
2.2829476e-01
1.6136397e-01
1.9442727e-01
0.0000000e+00
2.6147994e-01
2.6133654e-01
3.1912766e-02
2.2741835e-01
1.2837306e-01
2.6090738e-01
6.3790642e-02
1.9324808e-01
2.6019302e-01
9.5598757e-02
2.2629331e-01
1.6020294e-01
2.5919417e-01
1.2730235e-01
2.9325002e-01
0.0000000e+00
2.9308921e-01
3.1609461e-02
2.2492087e-01
2.9260793e-01
1.9185762e-01
6.3184358e-02
2.5791192e-01
1.5886672e-01
2.9180676e-01
9.4690166e-02
2.9068652e-01
1.2609243e-01
2.2330251e-01
2.5634772e-01
3.2469946e-01
0.0000000e+00
1.9025739e-01
3.1271599e-02
3.2452139e-01
6.2509000e-02
3.2398850e-01
2.8924850e-01
1.5735683e-01
3.2310140e-01
9.3678057e-02
2.5450325e-01
2.2144002e-01
3.2186106e-01
1.2474468e-01
2.8749424e-01
1.8844916e-01
0.0000000e+00
3.5579383e-01
3.0899543e-02
3.5559872e-01
3.5501480e-01
1.5567489e-01
3.2026881e-01
6.1765298e-02
2.5238052e-01
3.5404274e-01
2.8542566e-01
9.2563517e-02
2.1933542e-01
1.8643488e-01
3.1832641e-01
3.5268363e-01
1.2326052e-01
3.8649917e-01
0.0000000e+00
3.8628718e-01
2.4998185e-01
3.0493705e-02
2.8304502e-01
3.5093892e-01
1.5382275e-01
3.8565290e-01
6.0954068e-02
2.1699101e-01
3.1603599e-01
3.8459694e-01
9.1347776e-02
3.4881049e-01
1.8421677e-01
3.8312054e-01
1.2164161e-01
2.8035492e-01
2.4730988e-01
3.1340006e-01
3.8122526e-01
1.5180242e-01
4.1678187e-01
0.0000000e+00
4.1655329e-01
3.0054528e-02
3.4630075e-01
2.1440937e-01
4.1586927e-01
6.0076192e-02
4.1473061e-01
9.0032168e-02
3.7891316e-01
1.8179725e-01
2.7735829e-01
3.1042144e-01
4.1313851e-01
3.4341237e-01
2.4436751e-01
1.1988969e-01
3.7618682e-01
2.1159330e-01
4.1109475e-01
1.4961614e-01
0.0000000e+00
4.4660881e-01
2.9582489e-02
4.4636387e-01
4.4563091e-01
5.9132632e-02
3.0710346e-01
3.4014854e-01
2.7405843e-01
4.0860152e-01
8.8618115e-02
1.7917897e-01
4.4441077e-01
3.7304917e-01
2.4115796e-01
1.1800670e-01
4.4270474e-01
4.0566155e-01
2.0854588e-01
3.3651280e-01
1.4726625e-01
4.4051471e-01
3.0344972e-01
3.6950368e-01
2.7045894e-01
0.0000000e+00
4.7594738e-01
4.7568637e-01
2.9078107e-02
4.7490528e-01
5.8124419e-02
1.7636478e-01
4.3784305e-01
2.3768476e-01
4.0227807e-01
4.7360498e-01
8.7107174e-02
4.7178689e-01
1.1599468e-01
3.3250916e-01
3.6555418e-01
2.9946420e-01
2.0527045e-01
4.3469271e-01
4.6945298e-01
2.6656374e-01
1.4475536e-01
3.9845479e-01
5.0476551e-01
0.0000000e+00
2.8541932e-02
5.0448871e-01
5.7052657e-02
2.3395169e-01
4.3106708e-01
5.0366032e-01
4.6660581e-01
1.7335775e-01
3.6120504e-01
3.2814199e-01
8.5501000e-02
5.0228131e-01
3.9419585e-01
2.9515126e-01
1.1385585e-01
5.0035310e-01
4.6324852e-01
2.0177060e-01
2.6237711e-01
4.2697018e-01
1.4208621e-01
4.9787793e-01
3.5646096e-01
2.2996283e-01
4.5938474e-01
5.3303170e-01
0.0000000e+00
3.2341602e-01
3.8950592e-01
2.7974550e-02
5.3273940e-01
4.9485835e-01
1.7016120e-01
5.5918515e-02
5.3186464e-01
2.9051563e-01
4.2240646e-01
8.3801337e-02
5.3040838e-01
1.1159252e-01
4.9129778e-01
1.9805014e-01
5.2837223e-01
4.5501870e-01
2.5790358e-01
3.5132715e-01
3.8439015e-01
1.3926169e-01
5.2575845e-01
3.1833646e-01
4.1738093e-01
2.2572252e-01
4.8720005e-01
0.0000000e+00
5.6071508e-01
4.5015520e-01
1.6677859e-01
2.7376583e-02
2.8556234e-01
5.2256978e-01
5.6040758e-01
5.4723229e-02
5.5948734e-01
8.2010046e-02
5.5795550e-01
2.5314811e-01
4.8256969e-01
3.7885413e-01
1.9411314e-01
5.1880985e-01
3.4580925e-01
4.1189906e-01
1.0920719e-01
5.5581361e-01
4.4479951e-01
3.1290886e-01
1.3628492e-01
5.5306405e-01
2.2123544e-01
5.1448268e-01
4.7741169e-01
2.8029686e-01
1.6321364e-01
5.4970980e-01
5.8778524e-01
0.0000000e+00
5.8746290e-01
2.6748681e-02
5.8649832e-01
4.0596682e-01
3.7290388e-01
5.3468116e-02
4.3895754e-01
3.3991322e-01
2.4811582e-01
5.8489245e-01
8.0129087e-02
5.0959295e-01
1.8996391e-01
5.4575455e-01
5.8264720e-01
3.0713916e-01
1.0670245e-01
4.7173175e-01
5.7976490e-01
1.3315915e-01
2.1650645e-01
5.4120266e-01
2.7472493e-01
5.0414616e-01
3.9959076e-01
4.3263564e-01
3.6654592e-01
5.7624871e-01
1.5947023e-01
3.3364558e-01
6.1421269e-01
0.0000000e+00
4.6553603e-01
2.6091533e-02
6.1387587e-01
5.2154537e-02
6.1286789e-01
2.4281228e-01
5.3605902e-01
7.8160517e-02
6.1118990e-01
5.7210255e-01
3.0103362e-01
1.8560697e-01
4.9814814e-01
1.0408104e-01
6.0884368e-01
4.2584071e-01
3.9277780e-01
2.6885259e-01
5.3032935e-01
2.1154076e-01
3.5978720e-01
5.6733090e-01
1.2988776e-01
6.0583180e-01
4.5883134e-01
3.2701316e-01
4.9160549e-01
1.5555246e-01
6.0215753e-01
0.0000000e+00
6.3996851e-01
6.3961762e-01
5.6193894e-01
2.3724325e-01
2.5405856e-02
6.3856739e-01
5.0783936e-02
2.9459897e-01
5.2401984e-01
1.8104710e-01
5.9782493e-01
6.3681901e-01
4.1858020e-01
7.6106489e-02
3.8553542e-01
4.5162502e-01
6.3437438e-01
1.0134583e-01
3.5263512e-01
4.8452535e-01
5.5593264e-01
2.6268634e-01
2.0634376e-01
5.9283876e-01
6.3123620e-01
1.2647437e-01
3.2002318e-01
5.1713741e-01
6.2740791e-01
1.5146461e-01
4.1086206e-01
2.3141482e-01
4.4392490e-01
5.8720440e-01
5.4931849e-01
2.8784218e-01
0.0000000e+00
6.6502458e-01
2.4692401e-02
3.7787151e-01
4.7691548e-01
6.6465992e-01
4.9357805e-02
6.6356856e-01
6.2289363e-01
1.7628926e-01
3.4509748e-01
7.3969245e-02
5.0968957e-01
6.6175175e-01
2.5623286e-01
9.8499805e-02
5.8092803e-01
6.5921140e-01
5.4210383e-01
6.1769837e-01
3.1268331e-01
2.0092115e-01
1.2292268e-01
6.5595037e-01
4.3573946e-01
4.0269470e-01
4.6878418e-01
1.4721115e-01
3.6979446e-01
5.0168449e-01
6.5197217e-01
2.8077072e-01
5.7401651e-01
6.1182773e-01
2.2533336e-01
6.8935341e-01
0.0000000e+00
3.3718255e-01
5.3429639e-01
6.8897539e-01
2.3951946e-02
6.8784416e-01
4.7877703e-02
1.7133868e-01
6.4728117e-01
6.8596089e-01
7.1751118e-02
6.0528821e-01
2.4949920e-01
3.0500159e-01
5.6647748e-01
6.8332762e-01
9.5546082e-02
4.2707759e-01
4.6014038e-01
1.9527885e-01
6.4188254e-01
3.9408708e-01
4.9313086e-01
6.7994732e-01
1.1923659e-01
5.2590489e-01
3.6131310e-01
5.9808689e-01
2.7339223e-01
6.7582357e-01
1.4279673e-01
2.1900554e-01
6.3578206e-01
3.2889897e-01
5.5831903e-01
7.1292847e-01
0.0000000e+00
7.1253753e-01
2.3185300e-02
6.7096096e-01
1.6620074e-01
4.5099345e-01
7.1136761e-01
4.6345253e-02
4.1794878e-01
4.8403814e-01
2.4249277e-01
6.2898648e-01
5.9023166e-01
7.0941991e-01
2.9698634e-01
6.9454536e-02
3.8504857e-01
5.1693833e-01
7.0669663e-01
9.2487879e-02
1.8942304e-01
6.6536480e-01
3.5243669e-01
5.4955018e-01
7.0320070e-01
1.1542011e-01
2.6571485e-01
6.2150323e-01
6.5904117e-01
5.8173114e-01
3.2025576e-01
2.1243824e-01
6.9893599e-01
1.3822615e-01
4.7441620e-01
4.4135347e-01
5.0740665e-01
4.0836301e-01
6.9390708e-01
3.7558910e-01
0.0000000e+00
1.6088107e-01
7.3572391e-01
5.4018056e-01
2.2393301e-02
7.3532051e-01
2.8864643e-01
6.1334050e-01
6.5199703e-01
2.3522118e-01
7.3411316e-01
4.4762123e-02
7.3210323e-01
6.7082003e-02
5.7259464e-01
3.4317496e-01
6.8811953e-01
1.8336010e-01
8.9328550e-02
7.2929287e-01
4.6427557e-01
4.9732018e-01
2.5774693e-01
6.4424002e-01
1.1147743e-01
4.3123096e-01
7.2568518e-01
3.1126240e-01
6.0450715e-01
3.9833081e-01
5.3022027e-01
6.8157965e-01
2.0563866e-01
1.3350445e-01
7.2128409e-01
3.6571896e-01
5.6283206e-01
2.7999088e-01
6.3577867e-01
1.5538549e-01
7.1609443e-01
6.7429459e-01
7.5771487e-01
2.2769240e-01
0.0000000e+00
7.5729942e-01
2.1576816e-02
7.5605601e-01
3.3353803e-01
4.3130044e-02
5.9501290e-01
7.5398600e-01
4.8668998e-01
6.4636126e-02
4.5362735e-01
1.7709666e-01
7.1012181e-01
4.2063695e-01
5.1968032e-01
7.5109166e-01
8.6071536e-02
6.6627234e-01
5.5245417e-01
3.8786307e-01
2.4949719e-01
3.0192870e-01
6.2662214e-01
1.0741285e-01
7.4737614e-01
1.9861422e-01
7.0337284e-01
3.5544896e-01
5.8486813e-01
1.2863675e-01
7.4284351e-01
6.5752161e-01
2.7102920e-01
4.7552770e-01
5.0857222e-01
4.4248316e-01
7.3749870e-01
6.1678058e-01
3.2353640e-01
1.4972000e-01
2.1991464e-01
6.9585484e-01
7.7887726e-01
0.0000000e+00
5.4147226e-01
2.0736737e-02
4.0958306e-01
7.7845025e-01
4.1450806e-02
7.7717209e-01
6.2119558e-02
7.7504426e-01
7.3134762e-01
1.7063959e-01
3.7697127e-01
5.7408392e-01
2.9226488e-01
6.4805198e-01
8.2720406e-02
7.7206910e-01
2.4097463e-01
6.8757606e-01
3.4479034e-01
1.0323082e-01
7.6824987e-01
6.0626471e-01
7.2439694e-01
1.9137262e-01
4.6384552e-01
4.9690810e-01
5.2989835e-01
1.2362838e-01
7.6359063e-01
4.3085521e-01
2.6177117e-01
6.7854553e-01
6.3787383e-01
3.1318101e-01
3.9808136e-01
5.6267208e-01
7.1665424e-01
2.1189642e-01
1.4389080e-01
7.5809658e-01
0.0000000e+00
7.9918802e-01
5.9508598e-01
1.9873980e-02
7.9874980e-01
3.6566731e-01
7.9743838e-01
3.9726235e-02
1.6399591e-01
7.9525506e-01
5.9535064e-02
7.5177372e-01
2.8228149e-01
6.6877317e-01
2.3218858e-01
7.0812798e-01
7.9220235e-01
7.9278812e-02
4.8470071e-01
6.2699831e-01
3.3375475e-01
5.1774514e-01
4.5165622e-01
4.1875619e-01
5.5064505e-01
9.8935895e-02
7.8828353e-01
1.8392174e-01
7.4462891e-01
5.8325660e-01
3.8614443e-01
2.5222689e-01
1.1848482e-01
6.9882756e-01
7.8350282e-01
3.0248320e-01
6.5826958e-01
2.0364650e-01
7.3666996e-01
6.1543727e-01
3.5396355e-01
7.7786553e-01
1.3790423e-01
5.0502586e-01
8.1862479e-01
0.0000000e+00
4.7196338e-01
1.8989490e-02
8.1817597e-01
2.7198946e-01
4.3897316e-01
3.7958223e-02
6.8876302e-01
8.1683266e-01
5.3801602e-01
1.5717289e-01
7.7137774e-01
3.2235420e-01
2.2314863e-01
6.4704633e-01
8.1459630e-01
5.6885462e-02
7.2790557e-01
5.7078958e-01
4.0619937e-01
7.5750522e-02
8.1146932e-01
6.0320336e-01
3.7378532e-01
7.6404661e-01
1.7626972e-01
9.4532773e-02
8.0745518e-01
6.7794549e-01
2.9145464e-01
2.4240682e-01
7.1834540e-01
1.1321169e-01
8.0255824e-01
6.3511562e-01
3.4187275e-01
4.9175444e-01
7.5588018e-01
1.9517387e-01
5.2479875e-01
4.5871007e-01
1.3176686e-01
5.5769855e-01
4.2581013e-01
7.9678386e-01
2.6140001e-01
7.0799983e-01
5.9031004e-01
3.9319843e-01
8.3716649e-01
0.0000000e+00
3.1060120e-01
8.3670753e-01
1.8084232e-02
6.6638678e-01
8.3533376e-01
3.6148697e-02
2.1386467e-01
1.5017799e-01
7.4688727e-01
7.9013830e-01
8.3304679e-01
5.4173648e-02
6.2249053e-01
3.6101753e-01
7.2139382e-02
8.2984900e-01
1.6842496e-01
7.8262889e-01
9.0026267e-02
8.2574397e-01
2.8010741e-01
4.7794545e-01
5.1100779e-01
6.9688016e-01
2.3232168e-01
7.3707777e-01
5.4399782e-01
4.4495529e-01
6.5409946e-01
3.2940820e-01
1.0781475e-01
8.2073611e-01
5.7677126e-01
4.1218159e-01
1.8648782e-01
7.7426386e-01
8.1483096e-01
1.2548538e-01
3.7976757e-01
6.0918492e-01
2.5052470e-01
7.2646242e-01
2.9850858e-01
6.8499857e-01
8.5479271e-01
0.0000000e+00
7.6505226e-01
2.0434684e-01
1.7159196e-02
8.5432410e-01
1.4301886e-01
8.0803490e-01
3.4299638e-02
6.4109701e-01
8.5292143e-01
3.4785500e-01
4.9665815e-01
4.6361390e-01
5.2970231e-01
5.1402587e-02
8.5058630e-01
5.6260198e-01
4.3071404e-01
6.8449356e-02
8.4732121e-01
7.1505278e-01
2.6845387e-01
1.6039599e-01
8.0035543e-01
2.2198246e-01
7.5500417e-01
6.7236805e-01
3.1658342e-01
3.9810237e-01
8.5421309e-02
8.4312975e-01
5.9521329e-01
1.0229989e-01
8.3801651e-01
7.9180092e-01
6.2739366e-01
1.7759782e-01
3.6592153e-01
2.8608957e-01
7.0286137e-01
2.3937546e-01
1.1906666e-01
7.4413067e-01
8.3198702e-01
5.1482773e-01
4.8176554e-01
4.4877553e-01
5.4781759e-01
3.3431214e-01
6.5900248e-01
1.9460551e-01
7.8238070e-01
0.0000000e+00
8.7148422e-01
1.6215391e-02
4.1600189e-01
5.8059090e-01
1.3570330e-01
8.2504791e-01
8.7100649e-01
3.2413062e-02
8.6957645e-01
4.8575304e-02
8.6719579e-01
3.8358793e-01
2.5650677e-01
6.1300439e-01
7.3244351e-01
6.8990147e-01
6.4684458e-02
3.0341250e-01
8.6386693e-01
1.5219161e-01
8.1720680e-01
7.7210504e-01
2.1140051e-01
8.0722913e-02
8.5959363e-01
3.5167539e-01
6.4491636e-01
4.9939036e-01
9.6673146e-02
5.3243434e-01
4.6634626e-01
8.5438055e-01
1.6851358e-01
8.0847216e-01
4.3344653e-01
2.7335769e-01
7.1995562e-01
5.6533384e-01
2.2796442e-01
7.6098526e-01
1.1251772e-01
6.7618734e-01
3.2040375e-01
8.4823334e-01
5.9794497e-01
4.0083495e-01
1.8465136e-01
7.9885364e-01
1.2823932e-01
8.4115881e-01
8.8722283e-01
0.0000000e+00
8.8673645e-01
3.6865410e-01
1.5253853e-02
6.3012522e-01
8.8528067e-01
3.0491035e-02
7.4903339e-01
2.4427916e-01
2.8990981e-01
7.0668054e-01
8.8285697e-01
4.5694895e-02
8.7946802e-01
1.4382076e-01
2.0058733e-01
5.1646906e-01
4.8340705e-01
6.0848814e-02
7.8836167e-01
8.3316457e-01
3.3704472e-01
6.6173387e-01
4.5041719e-01
5.4945874e-01
8.7511760e-01
7.5936228e-02
4.1764367e-01
5.8223182e-01
1.5924503e-01
8.2425940e-01
8.6981040e-01
2.6032689e-01
9.0940662e-02
7.3626262e-01
6.1464512e-01
3.8522977e-01
2.1630406e-01
3.0614498e-01
6.9263279e-01
7.7700770e-01
8.6355221e-01
1.0584570e-01
1.7449525e-01
6.4655697e-01
3.5331720e-01
8.1445307e-01
4.9993920e-01
8.5634989e-01
1.2063507e-01
5.3298301e-01
4.6689531e-01
2.7609006e-01
9.0199125e-01
0.0000000e+00
7.2268683e-01
2.3178439e-01
9.0149677e-01
1.4275629e-02
7.6480424e-01
9.0001678e-01
5.6588221e-01
2.8535657e-02
4.3399569e-01
3.2204551e-01
4.2764500e-02
8.9755273e-01
6.7782778e-01
1.8955478e-01
8.0375624e-01
8.4821129e-01
1.3529260e-01
4.0138420e-01
5.9849316e-01
8.9410746e-01
5.6946609e-02
8.8968462e-01
7.1066484e-02
6.3067317e-01
3.6920339e-01
2.4701138e-01
7.5176460e-01
8.3914530e-01
1.4980230e-01
7.0832086e-01
2.9155144e-01
8.8428909e-01
8.5108697e-02
2.0440714e-01
7.9218060e-01
4.8286283e-01
5.1592463e-01
3.3759397e-01
6.6228169e-01
4.4987315e-01
5.4891402e-01
8.7792677e-01
9.9057905e-02
1.6414827e-01
8.2916194e-01
5.8168685e-01
4.1709977e-01
2.6196837e-01
7.3790294e-01
2.1903610e-01
1.1289887e-01
8.7060457e-01
7.7973884e-01
6.9318050e-01
3.0669415e-01
0.0000000e+00
3.8468593e-01
9.1577333e-01
6.1409992e-01
1.3281789e-02
9.1527134e-01
9.1376871e-01
2.6549064e-02
8.1827193e-01
1.7831488e-01
9.1126710e-01
3.9787326e-02
8.6233056e-01
1.2661646e-01
3.5277337e-01
9.0776914e-01
6.4601153e-01
5.2982111e-02
2.3342571e-01
7.6644456e-01
4.9830228e-01
9.0327877e-01
7.2323447e-01
2.7663907e-01
6.6119000e-02
4.6525863e-01
5.3134578e-01
1.4019570e-01
8.5311371e-01
8.0648732e-01
1.9228663e-01
4.3235922e-01
5.6424475e-01
3.2150158e-01
6.7728221e-01
8.9780080e-01
7.9183638e-02
5.9685540e-01
3.9974785e-01
8.9134133e-01
9.2161752e-02
1.5362173e-01
8.4296417e-01
2.4756019e-01
7.5231224e-01
3.6756706e-01
6.2903517e-01
7.9382092e-01
2.0604824e-01
2.9100740e-01
7.0777524e-01
1.0503916e-01
8.8390726e-01
9.2855406e-01
0.0000000e+00
9.2804509e-01
1.2273420e-02
1.6687991e-01
8.3189291e-01
6.6064346e-01
3.3595759e-01
9.2652154e-01
2.4533428e-02
5.1319677e-01
4.8013529e-01
4.4714588e-01
9.2398500e-01
5.4618585e-01
3.6766630e-02
1.1780180e-01
8.7550688e-01
9.2043823e-01
4.8959654e-02
5.7895839e-01
4.1437268e-01
2.6142412e-01
7.3735732e-01
7.8028655e-01
2.1958470e-01
9.1588521e-01
6.1099183e-02
3.0505762e-01
6.9154215e-01
1.7995575e-01
8.1991220e-01
1.3043572e-01
8.6614925e-01
6.1137116e-01
3.8195893e-01
9.1033083e-01
7.3171951e-02
3.5004634e-01
6.4328247e-01
7.6589900e-01
2.3288122e-01
9.0378124e-01
8.5164770e-02
8.5584462e-01
1.4292713e-01
2.7500236e-01
7.2159618e-01
8.0703497e-01
4.9448681e-01
1.9283497e-01
5.2752995e-01
4.6144351e-01
4.2854437e-01
9.7064540e-02
5.6042850e-01
8.9624345e-01
3.1877443e-01
6.7455298e-01
8.4460431e-01
9.4031942e-01
0.0000000e+00
1.5526238e-01
9.3980402e-01
1.1251624e-02
5.9303880e-01
3.9593315e-01
9.3826115e-01
2.2490952e-02
8.8772583e-01
1.0885826e-01
7.5067401e-01
9.3569249e-01
3.3705708e-02
2.4592327e-01
2.0550349e-01
7.9327536e-01
6.2521827e-01
3.6375239e-01
9.3210089e-01
2.8828004e-01
4.4883635e-02
7.0504600e-01
9.2749017e-01
1.6742802e-01
5.6012522e-02
8.3244056e-01
1.2053304e-01
8.7823766e-01
3.3214280e-01
6.5682632e-01
9.2186546e-01
5.0829750e-01
4.7523645e-01
6.7080215e-02
5.4128611e-01
4.4224736e-01
7.7864838e-01
2.1794750e-01
7.3462814e-01
2.5869656e-01
4.0947443e-01
5.7405823e-01
1.3207614e-01
8.6778927e-01
9.1523284e-01
7.8074612e-02
8.1936663e-01
1.7941073e-01
3.0124265e-01
6.8772489e-01
3.7706080e-01
6.0647070e-01
9.0759963e-01
8.8983715e-02
8.5639215e-01
1.4347497e-01
9.5105654e-01
0.0000000e+00
7.6316994e-01
9.5053530e-01
1.0217518e-02
3.4514815e-01
2.3015338e-01
6.3838166e-01
9.4897485e-01
2.0423871e-02
8.9897412e-01
7.1777892e-01
2.7118716e-01
9.9795602e-02
1.9119745e-01
8.0539685e-01
9.4637686e-01
3.0607911e-02
4.8850954e-01
9.4274426e-01
4.5546666e-01
5.2155215e-01
4.0758509e-02
3.1387603e-01
1.5471707e-01
8.4405869e-01
6.6965187e-01
5.5445015e-01
4.2256787e-01
9.3808091e-01
8.8936579e-01
1.1049847e-01
5.0864577e-02
3.8995692e-01
5.8706015e-01
9.3239200e-01
7.4685693e-01
6.0915075e-02
2.4210779e-01
7.9054642e-01
2.0277531e-01
7.0014483e-01
2.8338140e-01
8.7878507e-01
3.5777622e-01
1.2108064e-01
6.1923921e-01
8.3080238e-01
1.6579017e-01
9.2568368e-01
7.0899025e-02
9.1796333e-01
8.0805525e-02
3.2616639e-01
6.5084678e-01
8.6724359e-01
1.3153055e-01
5.0124830e-01
4.6818781e-01
7.7483153e-01
2.1413168e-01
7.2972721e-01
4.3519914e-01
5.3423619e-01
2.5379768e-01
0.0000000e+00
1.7668219e-01
9.6075368e-01
8.1663775e-01
9.6022713e-01
9.1722319e-03
9.0923941e-01
5.6700784e-01
9.5865077e-01
1.8334443e-02
4.0242657e-01
9.0623751e-02
6.8174511e-01
9.5602638e-01
2.7476624e-02
2.9526597e-01
9.5235676e-01
3.6588788e-02
3.7001324e-01
5.9942007e-01
8.5475391e-01
1.4183681e-01
8.9952135e-01
1.0034299e-01
9.4764590e-01
4.5660976e-02
7.5826937e-01
2.2525415e-01
8.0158013e-01
1.8738125e-01
3.3810034e-01
6.3133037e-01
7.1179932e-01
2.6521021e-01
9.4189900e-01
5.4683287e-02
8.8881993e-01
8.4132975e-01
1.5198816e-01
1.0995263e-01
4.8039666e-01
9.3512231e-01
6.3645862e-02
5.1343846e-01
4.4735435e-01
6.6260004e-01
3.0682787e-01
4.1445589e-01
5.4633564e-01
7.2538912e-02
9.2732328e-01
7.8564608e-01
1.9787568e-01
3.8184550e-01
2.3613054e-01
7.4087787e-01
5.7894540e-01
8.7714672e-01
1.1944219e-01
1.6197355e-01
8.2698572e-01
6.9309294e-01
2.7633294e-01
3.4966499e-01
9.6940029e-01
0.0000000e+00
6.1112428e-01
9.6886903e-01
8.1169112e-03
9.1851044e-01
8.1352726e-02
9.6727848e-01
1.6224954e-02
9.6463048e-01
2.4315273e-02
8.6451453e-01
1.2880130e-01
9.6092784e-01
3.2379031e-02
6.4273077e-01
3.1805459e-01
7.6885289e-01
2.0815402e-01
9.0869337e-01
9.0077691e-02
8.1173748e-01
9.5617461e-01
4.9208027e-01
4.0407415e-02
7.2267586e-01
1.7178208e-01
4.5902058e-01
2.4674894e-01
5.2506703e-01
4.2603230e-01
9.5037603e-01
4.8391659e-02
3.9326015e-01
5.5783802e-01
8.5093713e-01
1.3801979e-01
6.7362857e-01
2.8715369e-01
9.8704278e-02
8.9788282e-01
9.4353837e-01
5.6323048e-02
3.6084771e-01
5.9025085e-01
2.1820505e-01
7.5121880e-01
7.9560173e-01
1.8140307e-01
9.3566918e-01
6.4192913e-02
6.2215924e-01
1.0722308e-01
8.8609070e-01
3.2893392e-01
2.5709769e-01
7.0368326e-01
8.3642948e-01
1.4708759e-01
9.2677706e-01
7.1992673e-02
9.7698683e-01
0.0000000e+00
9.7645146e-01
7.0527084e-03
4.7018325e-01
5.0322366e-01
4.3714169e-01
1.4097712e-02
6.5342772e-01
2.9766071e-01
9.7484851e-01
1.1562481e-01
8.7332976e-01
9.7217977e-01
2.1127315e-02
5.3611845e-01
4.0424302e-01
7.7859604e-01
1.9082606e-01
7.3276281e-01
2.2801776e-01
9.6844816e-01
2.8133841e-02
8.2100731e-01
3.7163422e-01
7.9713799e-02
9.1687173e-01
1.5599483e-01
5.6872904e-01
3.5109635e-02
9.6365780e-01
6.8392068e-01
2.6716542e-01
6.0091013e-01
3.3945498e-01
8.5961407e-01
1.2390030e-01
9.5781380e-01
4.2047076e-02
9.0596396e-01
8.7347887e-02
7.6073885e-01
2.0004076e-01
9.5092273e-01
4.8938595e-02
3.0784279e-01
6.3251328e-01
8.0468756e-01
1.6473183e-01
7.1350479e-01
2.3758131e-01
4.4777766e-01
4.8083666e-01
8.9406574e-01
9.4886594e-02
4.1478926e-01
9.4299197e-01
5.5776659e-02
5.1382178e-01
1.3204056e-01
8.4495854e-01
3.8201675e-01
5.4659116e-01
2.7694094e-01
6.6340941e-01
9.3403029e-01
6.2553816e-02
0.0000000e+00
9.8350507e-01