# vtk DataFile Version 4.0
vtk output
ASCII
DATASET UNSTRUCTURED_GRID
POINTS 2601 float
0.0000000e+00 0.0000000e+00 0.0000000e+00 
2.0000000e-02 0.0000000e+00 0.0000000e+00 
0.0000000e+00 2.0000000e-02 0.0000000e+00 
2.0000000e-02 2.0000000e-02 0.0000000e+00 
3.9999999e-02 0.0000000e+00 0.0000000e+00 
0.0000000e+00 3.9999999e-02 0.0000000e+00 
3.9999999e-02 2.0000000e-02 0.0000000e+00 
2.0000000e-02 3.9999999e-02 0.0000000e+00 
3.9999999e-02 3.9999999e-02 0.0000000e+00 
5.9999999e-02 0.0000000e+00 0.0000000e+00 
0.0000000e+00 5.9999999e-02 0.0000000e+00 
5.9999999e-02 2.0000000e-02 0.0000000e+00 
2.0000000e-02 5.9999999e-02 0.0000000e+00 
5.9999999e-02 3.9999999e-02 0.0000000e+00 
3.9999999e-02 5.9999999e-02 0.0000000e+00 
7.9999998e-02 0.0000000e+00 0.0000000e+00 
0.0000000e+00 7.9999998e-02 0.0000000e+00 
2.0000000e-02 7.9999998e-02 0.0000000e+00 
7.9999998e-02 2.0000000e-02 0.0000000e+00 
5.9999999e-02 5.9999999e-02 0.0000000e+00 
3.9999999e-02 7.9999998e-02 0.0000000e+00 
7.9999998e-02 3.9999999e-02 0.0000000e+00 
5.9999999e-02 7.9999998e-02 0.0000000e+00 
1.0000000e-01 0.0000000e+00 0.0000000e+00 
0.0000000e+00 1.0000000e-01 0.0000000e+00 
7.9999998e-02 5.9999999e-02 0.0000000e+00 
2.0000000e-02 1.0000000e-01 0.0000000e+00 
1.0000000e-01 2.0000000e-02 0.0000000e+00 
3.9999999e-02 1.0000000e-01 0.0000000e+00 
1.0000000e-01 3.9999999e-02 0.0000000e+00 
7.9999998e-02 7.9999998e-02 0.0000000e+00 
5.9999999e-02 1.0000000e-01 0.0000000e+00 
1.0000000e-01 5.9999999e-02 0.0000000e+00 
1.2000000e-01 0.0000000e+00 0.0000000e+00 
0.0000000e+00 1.2000000e-01 0.0000000e+00 
1.2000000e-01 2.0000000e-02 0.0000000e+00 
2.0000000e-02 1.2000000e-01 0.0000000e+00 
3.9999999e-02 1.2000000e-01 0.0000000e+00 
1.2000000e-01 3.9999999e-02 0.0000000e+00 
1.0000000e-01 7.9999998e-02 0.0000000e+00 
7.9999998e-02 1.0000000e-01 0.0000000e+00 
5.9999999e-02 1.2000000e-01 0.0000000e+00 
1.2000000e-01 5.9999999e-02 0.0000000e+00 
1.4000000e-01 0.0000000e+00 0.0000000e+00 
0.0000000e+00 1.4000000e-01 0.0000000e+00 
1.0000000e-01 1.0000000e-01 0.0000000e+00 
1.4000000e-01 2.0000000e-02 0.0000000e+00 
2.0000000e-02 1.4000000e-01 0.0000000e+00 
1.2000000e-01 7.9999998e-02 0.0000000e+00 
7.9999998e-02 1.2000000e-01 0.0000000e+00 
3.9999999e-02 1.4000000e-01 0.0000000e+00 
1.4000000e-01 3.9999999e-02 0.0000000e+00 
5.9999999e-02 1.4000000e-01 0.0000000e+00 
1.4000000e-01 5.9999999e-02 0.0000000e+00 
1.2000000e-01 1.0000000e-01 0.0000000e+00 
1.0000000e-01 1.2000000e-01 0.0000000e+00 
1.6000000e-01 0.0000000e+00 0.0000000e+00 
0.0000000e+00 1.6000000e-01 0.0000000e+00 
1.4000000e-01 7.9999998e-02 0.0000000e+00 
1.6000000e-01 2.0000000e-02 0.0000000e+00 
7.9999998e-02 1.4000000e-01 0.0000000e+00 
2.0000000e-02 1.6000000e-01 0.0000000e+00 
1.6000000e-01 3.9999999e-02 0.0000000e+00 
3.9999999e-02 1.6000000e-01 0.0000000e+00 
1.2000000e-01 1.2000000e-01 0.0000000e+00 
1.6000000e-01 5.9999999e-02 0.0000000e+00 
5.9999999e-02 1.6000000e-01 0.0000000e+00 
1.4000000e-01 1.0000000e-01 0.0000000e+00 
1.0000000e-01 1.4000000e-01 0.0000000e+00 
1.6000000e-01 7.9999998e-02 0.0000000e+00 
7.9999998e-02 1.6000000e-01 0.0000000e+00 
1.8000001e-01 0.0000000e+00 0.0000000e+00 
0.0000000e+00 1.8000001e-01 0.0000000e+00 
2.0000000e-02 1.8000001e-01 0.0000000e+00 
1.8000001e-01 2.0000000e-02 0.0000000e+00 
3.9999999e-02 1.8000001e-01 0.0000000e+00 
1.8000001e-01 3.9999999e-02 0.0000000e+00 
1.4000000e-01 1.2000000e-01 0.0000000e+00 
1.2000000e-01 1.4000000e-01 0.0000000e+00 
1.6000000e-01 1.0000000e-01 0.0000000e+00 
1.0000000e-01 1.6000000e-01 0.0000000e+00 
5.9999999e-02 1.8000001e-01 0.0000000e+00 
1.8000001e-01 5.9999999e-02 0.0000000e+00 
7.9999998e-02 1.8000001e-01 0.0000000e+00 
1.8000001e-01 7.9999998e-02 0.0000000e+00 
1.4000000e-01 1.4000000e-01 0.0000000e+00 
1.6000000e-01 1.2000000e-01 0.0000000e+00 
2.0000000e-01 0.0000000e+00 0.0000000e+00 
0.0000000e+00 2.0000000e-01 0.0000000e+00 
1.2000000e-01 1.6000000e-01 0.0000000e+00 
2.0000000e-02 2.0000000e-01 0.0000000e+00 
2.0000000e-01 2.0000000e-02 0.0000000e+00 
3.9999999e-02 2.0000000e-01 0.0000000e+00 
2.0000000e-01 3.9999999e-02 0.0000000e+00 
1.0000000e-01 1.8000001e-01 0.0000000e+00 
1.8000001e-01 1.0000000e-01 0.0000000e+00 
5.9999999e-02 2.0000000e-01 0.0000000e+00 
2.0000000e-01 5.9999999e-02 0.0000000e+00 
1.6000000e-01 1.4000000e-01 0.0000000e+00 
1.4000000e-01 1.6000000e-01 0.0000000e+00 
7.9999998e-02 2.0000000e-01 0.0000000e+00 
2.0000000e-01 7.9999998e-02 0.0000000e+00 
1.2000000e-01 1.8000001e-01 0.0000000e+00 
1.8000001e-01 1.2000000e-01 0.0000000e+00 
2.2000000e-01 0.0000000e+00 0.0000000e+00 
0.0000000e+00 2.2000000e-01 0.0000000e+00 
2.2000000e-01 2.0000000e-02 0.0000000e+00 
2.0000000e-02 2.2000000e-01 0.0000000e+00 
1.0000000e-01 2.0000000e-01 0.0000000e+00 
3.9999999e-02 2.2000000e-01 0.0000000e+00 
2.2000000e-01 3.9999999e-02 0.0000000e+00 
2.0000000e-01 1.0000000e-01 0.0000000e+00 
1.6000000e-01 1.6000000e-01 0.0000000e+00 
1.4000000e-01 1.8000001e-01 0.0000000e+00 
2.2000000e-01 5.9999999e-02 0.0000000e+00 
1.8000001e-01 1.4000000e-01 0.0000000e+00 
5.9999999e-02 2.2000000e-01 0.0000000e+00 
1.2000000e-01 2.0000000e-01 0.0000000e+00 
2.0000000e-01 1.2000000e-01 0.0000000e+00 
2.2000000e-01 7.9999998e-02 0.0000000e+00 
7.9999998e-02 2.2000000e-01 0.0000000e+00 
2.3999999e-01 0.0000000e+00 0.0000000e+00 
0.0000000e+00 2.3999999e-01 0.0000000e+00 
1.6000000e-01 1.8000001e-01 0.0000000e+00 
2.3999999e-01 2.0000000e-02 0.0000000e+00 
1.8000001e-01 1.6000000e-01 0.0000000e+00 
2.0000000e-02 2.3999999e-01 0.0000000e+00 
2.2000000e-01 1.0000000e-01 0.0000000e+00 
1.0000000e-01 2.2000000e-01 0.0000000e+00 
3.9999999e-02 2.3999999e-01 0.0000000e+00 
2.3999999e-01 3.9999999e-02 0.0000000e+00 
1.4000000e-01 2.0000000e-01 0.0000000e+00 
2.0000000e-01 1.4000000e-01 0.0000000e+00 
2.3999999e-01 5.9999999e-02 0.0000000e+00 
5.9999999e-02 2.3999999e-01 0.0000000e+00 
2.2000000e-01 1.2000000e-01 0.0000000e+00 
1.2000000e-01 2.2000000e-01 0.0000000e+00 
2.3999999e-01 7.9999998e-02 0.0000000e+00 
7.9999998e-02 2.3999999e-01 0.0000000e+00 
1.8000001e-01 1.8000001e-01 0.0000000e+00 
1.6000000e-01 2.0000000e-01 0.0000000e+00 
2.0000000e-01 1.6000000e-01 0.0000000e+00 
2.3999999e-01 1.0000000e-01 0.0000000e+00 
1.0000000e-01 2.3999999e-01 0.0000000e+00 
2.5999999e-01 0.0000000e+00 0.0000000e+00 
0.0000000e+00 2.5999999e-01 0.0000000e+00 
2.2000000e-01 1.4000000e-01 0.0000000e+00 
1.4000000e-01 2.2000000e-01 0.0000000e+00 
2.5999999e-01 2.0000000e-02 0.0000000e+00 
2.0000000e-02 2.5999999e-01 0.0000000e+00 
2.5999999e-01 3.9999999e-02 0.0000000e+00 
3.9999999e-02 2.5999999e-01 0.0000000e+00 
2.5999999e-01 5.9999999e-02 0.0000000e+00 
5.9999999e-02 2.5999999e-01 0.0000000e+00 
1.2000000e-01 2.3999999e-01 0.0000000e+00 
2.3999999e-01 1.2000000e-01 0.0000000e+00 
1.8000001e-01 2.0000000e-01 0.0000000e+00 
2.0000000e-01 1.8000001e-01 0.0000000e+00 
2.5999999e-01 7.9999998e-02 0.0000000e+00 
1.6000000e-01 2.2000000e-01 0.0000000e+00 
2.2000000e-01 1.6000000e-01 0.0000000e+00 
7.9999998e-02 2.5999999e-01 0.0000000e+00 
2.3999999e-01 1.4000000e-01 0.0000000e+00 
1.4000000e-01 2.3999999e-01 0.0000000e+00 
2.5999999e-01 1.0000000e-01 0.0000000e+00 
1.0000000e-01 2.5999999e-01 0.0000000e+00 
2.8000000e-01 0.0000000e+00 0.0000000e+00 
0.0000000e+00 2.8000000e-01 0.0000000e+00 
2.8000000e-01 2.0000000e-02 0.0000000e+00 
2.0000000e-02 2.8000000e-01 0.0000000e+00 
2.0000000e-01 2.0000000e-01 0.0000000e+00 
2.8000000e-01 3.9999999e-02 0.0000000e+00 
3.9999999e-02 2.8000000e-01 0.0000000e+00 
1.8000001e-01 2.2000000e-01 0.0000000e+00 
2.2000000e-01 1.8000001e-01 0.0000000e+00 
2.5999999e-01 1.2000000e-01 0.0000000e+00 
2.8000000e-01 5.9999999e-02 0.0000000e+00 
5.9999999e-02 2.8000000e-01 0.0000000e+00 
1.2000000e-01 2.5999999e-01 0.0000000e+00 
1.6000000e-01 2.3999999e-01 0.0000000e+00 
2.3999999e-01 1.6000000e-01 0.0000000e+00 
2.8000000e-01 7.9999998e-02 0.0000000e+00 
7.9999998e-02 2.8000000e-01 0.0000000e+00 
2.5999999e-01 1.4000000e-01 0.0000000e+00 
1.4000000e-01 2.5999999e-01 0.0000000e+00 
2.2000000e-01 2.0000000e-01 0.0000000e+00 
2.8000000e-01 1.0000000e-01 0.0000000e+00 
2.0000000e-01 2.2000000e-01 0.0000000e+00 
1.0000000e-01 2.8000000e-01 0.0000000e+00 
2.3999999e-01 1.8000001e-01 0.0000000e+00 
3.0000001e-01 0.0000000e+00 0.0000000e+00 
0.0000000e+00 3.0000001e-01 0.0000000e+00 
1.8000001e-01 2.3999999e-01 0.0000000e+00 
3.0000001e-01 2.0000000e-02 0.0000000e+00 
2.0000000e-02 3.0000001e-01 0.0000000e+00 
3.0000001e-01 3.9999999e-02 0.0000000e+00 
3.9999999e-02 3.0000001e-01 0.0000000e+00 
2.8000000e-01 1.2000000e-01 0.0000000e+00 
1.2000000e-01 2.8000000e-01 0.0000000e+00 
1.6000000e-01 2.5999999e-01 0.0000000e+00 
2.5999999e-01 1.6000000e-01 0.0000000e+00 
3.0000001e-01 5.9999999e-02 0.0000000e+00 
5.9999999e-02 3.0000001e-01 0.0000000e+00 
3.0000001e-01 7.9999998e-02 0.0000000e+00 
7.9999998e-02 3.0000001e-01 0.0000000e+00 
2.2000000e-01 2.2000000e-01 0.0000000e+00 
2.3999999e-01 2.0000000e-01 0.0000000e+00 
2.0000000e-01 2.3999999e-01 0.0000000e+00 
2.8000000e-01 1.4000000e-01 0.0000000e+00 
1.4000000e-01 2.8000000e-01 0.0000000e+00 
2.5999999e-01 1.8000001e-01 0.0000000e+00 
1.8000001e-01 2.5999999e-01 0.0000000e+00 
3.0000001e-01 1.0000000e-01 0.0000000e+00 
1.0000000e-01 3.0000001e-01 0.0000000e+00 
3.1999999e-01 0.0000000e+00 0.0000000e+00 
0.0000000e+00 3.1999999e-01 0.0000000e+00 
3.1999999e-01 2.0000000e-02 0.0000000e+00 
2.0000000e-02 3.1999999e-01 0.0000000e+00 
1.6000000e-01 2.8000000e-01 0.0000000e+00 
2.8000000e-01 1.6000000e-01 0.0000000e+00 
3.1999999e-01 3.9999999e-02 0.0000000e+00 
3.9999999e-02 3.1999999e-01 0.0000000e+00 
3.0000001e-01 1.2000000e-01 0.0000000e+00 
1.2000000e-01 3.0000001e-01 0.0000000e+00 
2.2000000e-01 2.3999999e-01 0.0000000e+00 
2.3999999e-01 2.2000000e-01 0.0000000e+00 
3.1999999e-01 5.9999999e-02 0.0000000e+00 
5.9999999e-02 3.1999999e-01 0.0000000e+00 
2.5999999e-01 2.0000000e-01 0.0000000e+00 
2.0000000e-01 2.5999999e-01 0.0000000e+00 
[...]
POINT_DATA 2601
FIELD FieldData 1
TEMPERATURE 1 2601  float
0.0000000e+00
6.2790520e-02
0.0000000e+00
6.2665015e-02
1.2533323e-01
0.0000000e+00
1.2508270e-01
6.2292367e-02
1.2433887e-01
1.8738131e-01
0.0000000e+00
1.8700673e-01
6.1674040e-02
1.8589461e-01
1.2310465e-01
2.4868989e-01
0.0000000e+00
6.0812484e-02
2.4819268e-01
1.8404932e-01
1.2138492e-01
2.4671662e-01
1.8147819e-01
3.0901700e-01
0.0000000e+00
2.4426754e-01
5.9711091e-02
3.0839908e-01
1.1918647e-01
3.0656484e-01
2.4085510e-01
1.7819135e-01
3.0352157e-01
3.6812454e-01
0.0000000e+00
3.6738828e-01
5.8374219e-02
1.1651799e-01
3.6520305e-01
2.9928124e-01
2.3649278e-01
1.7420177e-01
3.6157751e-01
4.2577928e-01
0.0000000e+00
2.9386064e-01
4.2492750e-01
5.6807138e-02
3.5652599e-01
2.3119783e-01
1.1339001e-01
4.2239982e-01
1.6952521e-01
4.1820624e-01
3.5006839e-01
2.8728116e-01
4.8175368e-01
0.0000000e+00
4.1236332e-01
4.8078960e-01
2.2499113e-01
5.5016030e-02
4.7792935e-01
1.0981485e-01
3.4223029e-01
4.7318420e-01
1.6418011e-01
4.0489417e-01
2.7956876e-01
4.6657288e-01
2.1789718e-01
5.3582680e-01
0.0000000e+00
5.3007964e-02
5.3475416e-01
1.0580665e-01
5.3157252e-01
3.9582831e-01
3.3304259e-01
4.5812154e-01
2.7075392e-01
1.5818760e-01
5.2629435e-01
2.0994397e-01
5.1894057e-01
3.8520148e-01
4.4786355e-01
5.8778524e-01
0.0000000e+00
3.2254162e-01
5.0790861e-02
5.8660817e-01
1.0138120e-01
5.8311749e-01
2.6087141e-01
5.0954026e-01
1.5157126e-01
5.7732707e-01
4.3583947e-01
3.7305576e-01
2.0116289e-01
5.6925976e-01
3.1076878e-01
4.9813056e-01
6.3742399e-01
0.0000000e+00
6.3614696e-01
4.8373453e-02
2.4996023e-01
9.6555933e-02
6.3236099e-01
5.5894744e-01
4.2209682e-01
3.5943905e-01
6.2608099e-01
4.8475653e-01
1.4435720e-01
2.9777059e-01
5.4643083e-01
6.1733174e-01
1.9158854e-01
6.8454713e-01
0.0000000e+00
4.0668988e-01
6.8317503e-01
4.6947107e-01
4.5765270e-02
6.0614794e-01
2.3806342e-01
9.1349877e-02
6.7910850e-01
3.4440508e-01
5.3175950e-01
6.7236358e-01
1.3657387e-01
5.9257364e-01
2.8359830e-01
6.6296685e-01
1.8125868e-01
4.5233461e-01
3.8967949e-01
5.1499140e-01
6.5095544e-01
2.2522786e-01
7.2896862e-01
0.0000000e+00
5.7666266e-01
3.2801327e-01
7.2750682e-01
4.2976584e-02
7.2317564e-01
8.5783534e-02
7.1599221e-01
1.2825188e-01
2.6830778e-01
6.3637686e-01
4.3341485e-01
4.9619287e-01
7.0598489e-01
3.7113285e-01
5.5847788e-01
1.7021397e-01
6.1928874e-01
3.1032825e-01
6.9319308e-01
2.1150413e-01
7.7051324e-01
0.0000000e+00
7.6896733e-01
4.0018372e-02
4.7543827e-01
7.6438850e-01
7.9878815e-02
4.1278654e-01
5.3809130e-01
6.7766744e-01
7.5679481e-01
1.1942402e-01
2.5195929e-01
3.5112312e-01
5.9975874e-01
7.4621612e-01
1.5849791e-01
6.5946937e-01
2.9141966e-01
5.1558352e-01
7.3269427e-01
4.5280963e-01
1.9694623e-01
5.7786423e-01
8.0901700e-01
0.0000000e+00
3.9053115e-01
8.0739295e-01
3.6902279e-02
8.0258447e-01
7.3658958e-02
7.1628255e-01
2.3461722e-01
3.2972923e-01
6.3867092e-01
7.9461032e-01
1.1012502e-01
7.8350192e-01
1.4615658e-01
4.9104372e-01
5.5369186e-01
4.2839640e-01
6.9704592e-01
2.7136204e-01
6.1535448e-01
3.6673650e-01
7.6930308e-01
1.8161146e-01
8.4432793e-01
0.0000000e+00
8.4263217e-01
3.3640563e-02
3.0703548e-01
6.7506069e-01
8.3761287e-01
6.7148440e-02
7.5206971e-01
2.1634974e-01
4.6456891e-01
5.2733743e-01
8.2928967e-01
1.0039146e-01
5.8961236e-01
4.0229496e-01
1.3323852e-01
8.1769526e-01
7.3187011e-01
2.5023425e-01
6.5041381e-01
3.4149641e-01
1.6556008e-01
8.0287522e-01
4.9890533e-01
8.7630665e-01
0.0000000e+00
2.8313115e-01
7.0878428e-01
5.6154686e-01
4.3626371e-01
8.7454587e-01
3.0246062e-02
7.8488797e-01
1.9722864e-01
8.6933559e-01
6.0372867e-02
6.2320310e-01
3.7460834e-01
8.6069614e-01
9.0261638e-02
8.4866142e-01
7.6380461e-01
2.2811930e-01
1.1979454e-01
6.8290377e-01
3.1491029e-01
5.3126931e-01
4.6850806e-01
8.3327854e-01
1.4885518e-01
5.9353638e-01
4.0623984e-01
7.3970872e-01
2.5811014e-01
9.0482706e-01
0.0000000e+00
9.0300816e-01
6.5433115e-01
2.6732136e-02
3.4544575e-01
8.1460810e-01
1.7732905e-01
8.9762747e-01
5.3358912e-02
8.8870591e-01
7.9775393e-02
7.1269596e-01
2.8708267e-01
4.9890006e-01
7.9272372e-01
2.0510396e-01
8.7627834e-01
1.0587749e-01
5.6153214e-01
4.3626571e-01
6.2317979e-01
3.7461609e-01
1.3156241e-01
8.6039340e-01
2.3207054e-01
7.6771200e-01
6.8287349e-01
3.1492200e-01
8.4111339e-01
1.5672906e-01
9.2977649e-01
0.0000000e+00
2.3112623e-02
9.2790675e-01
9.2237699e-01
4.6134185e-02
5.2731758e-01
4.6456641e-01
5.8957207e-01
4.0230456e-01
6.8974003e-02
9.1320866e-01
7.3967254e-01
2.5812253e-01
8.1851393e-01
1.8127845e-01
3.4151733e-01
9.0043741e-01
9.1542140e-02
6.5036005e-01
8.8411325e-01
1.1374978e-01
7.9268414e-01
2.0511417e-01
7.0871753e-01
2.8315708e-01
4.9103147e-01
5.5364782e-01
4.2840466e-01
8.6429989e-01
1.3550961e-01
9.5105654e-01
0.0000000e+00
6.1528379e-01
3.6676210e-01
9.4914341e-01
1.9401785e-02
9.4348651e-01
3.8727161e-02
2.2814281e-01
7.6372647e-01
9.3410772e-01
5.7900034e-02
8.4107471e-01
1.5673621e-01
6.7496848e-01
3.0707386e-01
9.2104357e-01
7.6844946e-02
5.1554394e-01
4.5280719e-01
7.3175919e-01
2.5027442e-01
8.1452829e-01
1.7734648e-01
9.0434492e-01
5.7776821e-01
3.9054596e-01
9.5487393e-02
6.3856441e-01
3.2977763e-01
8.8407695e-01
1.1375415e-01
9.6858317e-01
0.0000000e+00
1.5614263e-02
7.8476459e-01
1.9726011e-01
9.6663439e-01
3.1167051e-02
6.9691318e-01
2.7142233e-01
9.6087283e-01
8.6031842e-01
1.3157365e-01
9.5132083e-01
4.6597149e-02
4.7544560e-01
5.3803229e-01
4.1281787e-01
6.1843857e-02
9.3801552e-01
5.9964949e-01
3.5117981e-01
7.5190133e-01
2.1640025e-01
8.3316112e-01
1.4887626e-01
7.6847255e-02
9.2100883e-01
2.9149374e-01
6.5930372e-01
9.0036708e-01
9.1548450e-02
8.0270869e-01
1.6559488e-01
4.9610260e-01
4.3338782e-01
7.1609259e-01
2.3469609e-01
9.8228723e-01
0.0000000e+00
9.8031062e-01
1.1765005e-02
3.7107399e-01
5.5817890e-01
9.7446734e-01
2.3483701e-02
1.0588989e-01
8.7617046e-01
9.6477991e-01
3.5109978e-02
6.1915708e-01
3.1042454e-01
9.5128626e-01
4.6598110e-02
7.6907670e-01
1.8166547e-01
1.1981563e-01
6.7750567e-01
8.4851205e-01
2.5208521e-01
9.3403912e-01
5.7902969e-02
4.5259258e-01
5.1519054e-01
3.8993123e-01
6.8980202e-02
9.1310591e-01
5.7671720e-01
3.2823509e-01
7.3237520e-01
1.9702728e-01
1.3327163e-01
8.1749636e-01
9.9211472e-01
0.0000000e+00
7.8692213e-03
6.3597554e-01
2.6839563e-01
9.9011815e-01
1.5707472e-02
8.8856834e-01
7.9786442e-02
9.8421621e-01
2.3483913e-02
9.7443187e-01
1.4620620e-01
7.8323340e-01
6.9295853e-01
2.1164919e-01
3.1167967e-02
9.6080327e-01
4.6975455e-01
4.0697572e-01
9.0279527e-02
8.6052161e-01
3.4467894e-01
5.3200364e-01
3.8729448e-02
9.4338399e-01
2.8381291e-01
5.9270912e-01
1.5857053e-01
7.4584013e-01
8.2907295e-01
4.6138685e-02
1.0041864e-01
9.2224246e-01
6.5123618e-01
2.2561169e-01
9.9802673e-01
0.0000000e+00
9.9601817e-01
3.9423136e-03
5.3366669e-02
8.9746183e-01
4.2211235e-01
9.9008101e-01
7.8691095e-03
4.8476538e-01
3.5949901e-01
7.9433870e-01
1.1016427e-01
9.8023832e-01
7.0505822e-01
1.7028569e-01
1.1764935e-02
5.4685307e-01
2.9807425e-01
9.6652871e-01
1.5614469e-02
8.6913991e-01
6.0385142e-02
6.0697490e-01
2.3852623e-01
9.4900602e-01
1.9402580e-02
7.5642169e-01
1.1947895e-01
1.8151732e-01
6.7166671e-02
8.3738852e-01
6.6318434e-01
9.2773950e-01
2.3114393e-02
0.0000000e+00
0.0000000e+00
0.0000000e+00
0.0000000e+00
1.0000000e+00
0.0000000e+00
9.0281355e-01
2.6735349e-02
5.5979222e-01
2.5035268e-01
9.9798745e-01
-1.8489931e-07
7.1560401e-01
1.2833725e-01
9.9203855e-01
-3.7668295e-07
7.3684916e-02
8.0233324e-01
9.8217642e-01
-5.8332506e-07
6.1867875e-01
1.9205967e-01
8.7432784e-01
3.0251235e-02
-8.1531709e-07
9.6843970e-01
0.0000000e+00
7.9911143e-02
9.5088255e-01
-1.0879380e-06
7.6412421e-01
0.0000000e+00
0.0000000e+00
1.3680492e-01
6.7306888e-01
0.0000000e+00
0.0000000e+00
3.3648264e-02
8.4239835e-01
9.2957437e-01
-1.4252477e-06
0.0000000e+00
0.0000000e+00
8.5846096e-02
7.2293746e-01
9.0460002e-01
-1.8681113e-06
8.0715954e-01
9.9802673e-01
0.0000000e+00
3.6912695e-02
9.9601817e-01
-3.9426768e-03
1.4474761e-01
-7.8698490e-03
6.2789309e-01
9.9008101e-01
0.0000000e+00
0.0000000e+00
9.8023832e-01
-1.1766078e-02
-2.4848200e-06
8.7605995e-01
0.0000000e+00
0.0000000e+00
-1.5616061e-02
9.6652865e-01
7.6877469e-01
0.0000000e+00
4.0035971e-02
0.0000000e+00
6.8028748e-01
9.1529623e-02
-1.9404696e-02
9.4900596e-01
8.4407175e-01
-3.4424197e-06
0.0000000e+00
0.0000000e+00
-2.3117147e-02
9.2773944e-01
4.2939149e-02
7.2734118e-01
0.0000000e+00
0.0000000e+00
0.0000000e+00
-2.6738923e-02
8.0877221e-01
0.0000000e+00
-4.5014681e-06
0.0000000e+00
9.0281337e-01
9.9211472e-01
0.0000000e+00
0.0000000e+00
9.9011815e-01
-7.8695649e-03
0.0000000e+00
-1.5708171e-02
9.8421621e-01
9.7443181e-01
-2.3484988e-02
0.0000000e+00
0.0000000e+00
8.7432754e-01
-3.0255940e-02
6.8462706e-01
4.5839164e-02
9.6080321e-01
-3.1169452e-02
-1.0531291e-05
7.7031308e-01
0.0000000e+00
0.0000000e+00
9.4338387e-01
-3.8731396e-02
8.4239763e-01
-3.3654552e-02
0.0000000e+00
0.0000000e+00
9.2224228e-01
0.0000000e+00
0.0000000e+00
-4.6141174e-02
6.1976745e-05
7.2902554e-01
0.0000000e+00
0.0000000e+00
0.0000000e+00
0.0000000e+00
-3.6922257e-02
8.0715746e-01
8.9746159e-01
-5.3369813e-02
9.8228723e-01
0.0000000e+00
0.0000000e+00
0.0000000e+00
9.8031062e-01
-1.1765321e-02
9.7446728e-01
-2.3484340e-02
8.6913943e-01
-6.0389098e-02
9.6477985e-01
-3.5110950e-02
6.8627620e-01
9.3739531e-05
7.6876718e-01
-4.0042158e-02
0.0000000e+00
-4.6599440e-02
9.5128620e-01
0.0000000e+00
0.0000000e+00
0.0000000e+00
0.0000000e+00
0.0000000e+00
0.0000000e+00
-5.7904676e-02
9.3403900e-01
8.3738756e-01
-6.7171752e-02
0.0000000e+00
0.0000000e+00
-4.3065127e-02
9.1310573e-01
-6.8982318e-02
7.2727978e-01
0.0000000e+00
0.0000000e+00
8.0233121e-01
-7.3691048e-02
0.0000000e+00
0.0000000e+00
8.8856804e-01
-7.9788998e-02
9.6858317e-01
0.0000000e+00
0.0000000e+00
0.0000000e+00
9.6663439e-01
-1.5614544e-02
9.6087283e-01
-3.1167617e-02
0.0000000e+00
-4.5934934e-02
0.0000000e+00
6.8458140e-01
-9.0282515e-02
8.6052120e-01
9.5132077e-01
7.6411861e-01
0.0000000e+00
0.0000000e+00
-7.9926983e-02
-4.6598002e-02
0.0000000e+00
0.0000000e+00
9.3801540e-01
-6.1845001e-02
-1.0042196e-01
0.0000000e+00
0.0000000e+00
8.2907224e-01
9.2100871e-01
-7.6848686e-02
0.0000000e+00
0.0000000e+00
7.2294831e-01
-8.5831992e-02
9.0036690e-01
-9.1550164e-02
0.0000000e+00
0.0000000e+00
0.0000000e+00
-1.1016800e-01
0.0000000e+00
0.0000000e+00
7.9433799e-01
8.7617016e-01
-1.0589185e-01
0.0000000e+00
0.0000000e+00
6.8030232e-01
-9.1510385e-02
9.5105654e-01
0.0000000e+00
0.0000000e+00
0.0000000e+00
9.4914341e-01
-1.9402031e-02
0.0000000e+00
0.0000000e+00
9.4348651e-01
-3.8727649e-02
8.4851170e-01
-1.1981770e-01
-1.1947804e-01
7.5642401e-01
9.3410766e-01
-5.7900760e-02
0.0000000e+00
0.0000000e+00
-7.6845899e-02
9.2104346e-01
8.1749600e-01
-1.3327353e-01
0.0000000e+00
9.0434480e-01
0.0000000e+00
-9.5488563e-02
0.0000000e+00
0.0000000e+00
-1.2832737e-01
7.1561939e-01
0.0000000e+00
0.0000000e+00
0.0000000e+00
0.0000000e+00
8.8407677e-01
-1.1375550e-01
0.0000000e+00
0.0000000e+00
7.8323346e-01
-1.4620687e-01
8.6031818e-01
0.0000000e+00
0.0000000e+00
-1.3157508e-01
-1.3679877e-01
6.7308080e-01
0.0000000e+00
0.0000000e+00
9.2977649e-01
0.0000000e+00
7.4584162e-01
-1.5856831e-01
-2.3112830e-02
9.2790669e-01
8.3316082e-01
-1.4887764e-01
9.2237693e-01
-4.6134599e-02
0.0000000e+00
0.0000000e+00
0.0000000e+00
-6.8974614e-02
0.0000000e+00
0.0000000e+00
9.1320860e-01
0.0000000e+00
0.0000000e+00
9.0043736e-01
-9.1542929e-02
-1.4474145e-01
6.2790126e-01
8.0270839e-01
-1.6559583e-01
7.0505708e-01
0.0000000e+00
0.0000000e+00
-1.7027825e-01
0.0000000e+00
0.0000000e+00
-1.1375072e-01
8.8411319e-01
8.6429977e-01
-1.3551065e-01
7.6907647e-01
0.0000000e+00
0.0000000e+00
-1.8166551e-01
0.0000000e+00
0.0000000e+00
6.6318178e-01
-1.8150385e-01
8.4107453e-01
-1.5673727e-01
0.0000000e+00
0.0000000e+00
0.0000000e+00
0.0000000e+00
0.0000000e+00
0.0000000e+00
7.3237431e-01
-1.9702584e-01
9.0482706e-01
0.0000000e+00
-2.6732311e-02
-1.7734742e-01
9.0300810e-01
0.0000000e+00
0.0000000e+00
8.1452805e-01
8.9762741e-01
-5.3359255e-02
8.8870591e-01
-7.9775892e-02
6.1867410e-01
0.0000000e+00
-1.9205280e-01
0.0000000e+00
8.7627828e-01
-1.0587814e-01
0.0000000e+00
0.0000000e+00
-1.9726074e-01
7.8476423e-01
6.9295579e-01
-2.1164665e-01
-1.3156317e-01
8.6039335e-01
0.0000000e+00
0.0000000e+00
0.0000000e+00
0.0000000e+00
0.0000000e+00
8.4111327e-01
-1.5672988e-01
-2.1640037e-01
7.5190073e-01
0.0000000e+00
0.0000000e+00
0.0000000e+00
0.0000000e+00
6.5122879e-01
-2.2561309e-01
0.0000000e+00
8.1851381e-01
-1.8127926e-01
0.0000000e+00
0.0000000e+00
0.0000000e+00
-2.3469578e-01
7.1609133e-01
7.9268396e-01
-2.0511490e-01
8.7630665e-01
0.0000000e+00
8.7454587e-01
0.0000000e+00
0.0000000e+00
-3.0246207e-02
8.6933559e-01
-6.0373154e-02
6.0696644e-01
-2.3852937e-01
0.0000000e+00
0.0000000e+00
8.6069614e-01
-9.0262055e-02
-2.2814335e-01
-2.5208539e-01
8.4866136e-01
0.0000000e+00
0.0000000e+00
7.6372623e-01
6.7750281e-01
-1.1979507e-01
0.0000000e+00
0.0000000e+00
0.0000000e+00
0.0000000e+00
8.3327848e-01
-1.4885579e-01
0.0000000e+00
0.0000000e+00
7.3175871e-01
-2.5027475e-01
5.5978423e-01
-2.5035438e-01
8.1460804e-01
-1.7732970e-01
0.0000000e+00
0.0000000e+00
0.0000000e+00
0.0000000e+00
6.3596839e-01
-2.6839861e-01
7.9272366e-01
-2.0510462e-01
0.0000000e+00
6.9691235e-01
-2.7142256e-01
0.0000000e+00
0.0000000e+00
7.6771188e-01
-2.3207115e-01
0.0000000e+00
0.0000000e+00
0.0000000e+00
0.0000000e+00
8.4432793e-01
0.0000000e+00
-2.8381443e-01
8.4263217e-01
-3.3640686e-02
5.9270304e-01
8.3761287e-01
0.0000000e+00
0.0000000e+00
-6.7148678e-02
0.0000000e+00
0.0000000e+00
8.2928967e-01
-1.0039181e-01
6.5930223e-01
-2.9149428e-01
0.0000000e+00
0.0000000e+00
7.3967242e-01
-2.5812307e-01
8.1769526e-01
-1.3323897e-01
-1.6556059e-01
8.0287522e-01
0.0000000e+00
0.0000000e+00
5.4685014e-01
-2.9807407e-01
7.0871735e-01
-2.8315753e-01
0.0000000e+00
0.0000000e+00
7.8488797e-01
-1.9722919e-01
6.1915594e-01
-3.1042495e-01
0.0000000e+00
0.0000000e+00
0.0000000e+00
0.0000000e+00
0.0000000e+00
7.6380461e-01
0.0000000e+00
-2.2811987e-01
6.7496836e-01
-3.0707428e-01
0.0000000e+00
0.0000000e+00
0.0000000e+00
0.0000000e+00
5.7671696e-01
-3.2823434e-01
7.3970872e-01
-2.5811070e-01
0.0000000e+00
0.0000000e+00
0.0000000e+00
8.0901700e-01
0.0000000e+00
0.0000000e+00
8.0739295e-01
-3.6902379e-02
-7.3659159e-02
8.0258447e-01
6.3856465e-01
-3.2977796e-01
7.9461038e-01
-1.1012531e-01
7.1269596e-01
-2.8708318e-01
0.0000000e+00
0.0000000e+00
7.8350198e-01
-1.4615695e-01
5.3200883e-01
-3.4467649e-01
0.0000000e+00
0.0000000e+00
7.6930308e-01
-1.8161190e-01
0.0000000e+00
0.0000000e+00
0.0000000e+00
6.8287361e-01
-3.1492251e-01
5.9965104e-01
-3.5117981e-01
0.0000000e+00
0.0000000e+00
7.5206977e-01
0.0000000e+00
0.0000000e+00
-2.1635021e-01
0.0000000e+00
0.0000000e+00
-2.5023475e-01
7.3187017e-01
6.5036041e-01
-3.4151781e-01
4.8477522e-01
-3.5949695e-01
0.0000000e+00
0.0000000e+00
0.0000000e+00
5.5818599e-01
-3.7107244e-01
0.0000000e+00
7.0878440e-01
-2.8313166e-01
7.7051324e-01
0.0000000e+00
7.6896733e-01
-4.0018458e-02
7.6438850e-01
0.0000000e+00
0.0000000e+00
-7.9878986e-02
6.1528474e-01
-3.6676252e-01
0.0000000e+00
0.0000000e+00
7.5679481e-01
0.0000000e+00
0.0000000e+00
-1.1942427e-01
-3.1491083e-01
6.8290389e-01
7.4621618e-01
-1.5849823e-01
0.0000000e+00
0.0000000e+00
0.0000000e+00
0.0000000e+00
5.1520324e-01
-3.8993096e-01
-1.9694661e-01
7.3269427e-01
0.0000000e+00
0.0000000e+00
0.0000000e+00
0.0000000e+00
-3.9054620e-01
6.5433145e-01
5.7777059e-01
-3.4544626e-01
7.1628261e-01
-2.3461764e-01
0.0000000e+00
0.0000000e+00
6.9704604e-01
4.6976072e-01
-2.7136248e-01
-4.0697512e-01
6.2318039e-01
-3.7461665e-01
0.0000000e+00
0.0000000e+00
5.3803670e-01
0.0000000e+00
-4.1281816e-01
0.0000000e+00
0.0000000e+00
6.7506081e-01
0.0000000e+00
-3.0703595e-01
0.0000000e+00
0.0000000e+00
0.0000000e+00
7.2896862e-01
0.0000000e+00
5.8957320e-01
-4.0230516e-01
0.0000000e+00
0.0000000e+00
-4.2976659e-02
7.2750682e-01
7.2317564e-01
-8.5783683e-02
-3.4149694e-01
6.5041405e-01
4.2211434e-01
7.1599227e-01
-4.2211482e-01
-1.2825209e-01
-4.3338791e-01
4.9610814e-01
0.0000000e+00
0.0000000e+00
0.0000000e+00
0.0000000e+00
7.0598495e-01
-1.7021425e-01
-2.1150446e-01
5.5364960e-01
-4.2840537e-01
6.9319314e-01
6.2320346e-01
-3.7460887e-01
0.0000000e+00
0.0000000e+00
-2.5195968e-01
6.7766756e-01
0.0000000e+00
0.0000000e+00
0.0000000e+00
0.0000000e+00
-4.5259440e-01
4.5259365e-01
0.0000000e+00
0.0000000e+00
0.0000000e+00
0.0000000e+00
5.9353697e-01
-4.0624046e-01
6.5946954e-01
-2.9142007e-01
-4.5280826e-01
5.1554626e-01
0.0000000e+00
0.0000000e+00
0.0000000e+00
0.0000000e+00
6.3867110e-01
-3.2972971e-01
-4.3626642e-01
5.6153297e-01
6.8454713e-01
0.0000000e+00
-4.5765337e-02
6.8317503e-01
0.0000000e+00
0.0000000e+00
4.0697426e-01
-4.6976024e-01
6.7910850e-01
-9.1350004e-02
0.0000000e+00
0.0000000e+00
4.7544730e-01
-4.7544780e-01
6.1535472e-01
-3.6673701e-01
-1.3657404e-01
6.7236358e-01
0.0000000e+00
6.6296691e-01
-1.8125892e-01
0.0000000e+00
0.0000000e+00
5.2731866e-01
0.0000000e+00
-4.6456739e-01
0.0000000e+00
0.0000000e+00
0.0000000e+00
-4.0229550e-01
6.5095550e-01
-2.2522816e-01
5.8961272e-01
0.0000000e+00
0.0000000e+00
6.3637698e-01
3.5949668e-01
-4.8477590e-01
-2.6830813e-01
4.3338701e-01
-4.9610835e-01
0.0000000e+00
0.0000000e+00
0.0000000e+00
0.0000000e+00
5.6154734e-01
-4.3626434e-01
4.9103254e-01
-4.9103296e-01
6.1928886e-01
-3.1032860e-01
5.9975892e-01
0.0000000e+00
-3.5112354e-01
0.0000000e+00
-4.6850884e-01
5.3126991e-01
0.0000000e+00
0.0000000e+00
3.8993129e-01
-5.1520389e-01
0.0000000e+00
0.0000000e+00
0.0000000e+00
0.0000000e+00
-5.1554656e-01
6.3742399e-01
0.0000000e+00
4.5280764e-01
6.3614696e-01
-4.8373509e-02
6.3236099e-01
0.0000000e+00
-9.6556045e-02
0.0000000e+00
-3.9053163e-01
5.7786447e-01
6.2608099e-01
0.0000000e+00
0.0000000e+00
-1.4435737e-01
6.1733180e-01
0.0000000e+00
-1.9158874e-01
0.0000000e+00
-4.9890107e-01
4.9890074e-01
5.5369216e-01
-4.2839691e-01
6.0614800e-01
-2.3806368e-01
3.4467435e-01
-5.3200895e-01
4.1281739e-01
-5.3803682e-01
0.0000000e+00
0.0000000e+00
0.0000000e+00
0.0000000e+00
5.9257376e-01
-2.8359860e-01
5.2733779e-01
-5.2731895e-01
-4.6456951e-01
4.6456692e-01
0.0000000e+00
5.7666284e-01
-3.2801363e-01
0.0000000e+00
0.0000000e+00
0.0000000e+00
0.0000000e+00
0.0000000e+00
0.0000000e+00
5.5847806e-01
3.7107110e-01
-5.5818564e-01
-3.7113324e-01
2.9806998e-01
-5.4685092e-01
0.0000000e+00
0.0000000e+00
4.9890575e-01
-4.9890605e-01
4.2840475e-01
-5.5364972e-01
0.0000000e+00
0.0000000e+00
0.0000000e+00
0.0000000e+00
5.8778524e-01
0.0000000e+00
5.8660817e-01
-5.0790910e-02
5.3809148e-01
-4.1278696e-01
5.8311754e-01
-1.0138129e-01
-1.5157139e-01
5.7732713e-01
4.6850845e-01
-5.3127015e-01
5.6925982e-01
-2.0116307e-01
0.0000000e+00
0.0000000e+00
-5.7671767e-01
3.2823080e-01
-4.5281011e-01
5.1558381e-01
2.5034976e-01
0.0000000e+00
0.0000000e+00
-5.5977714e-01
3.9054528e-01
5.5894750e-01
-2.4996047e-01
-5.7777059e-01
0.0000000e+00
0.0000000e+00
5.4643095e-01
-2.9777086e-01
0.0000000e+00
0.0000000e+00
4.3626595e-01
0.0000000e+00
-5.6153315e-01
0.0000000e+00
4.9104401e-01
-4.9104425e-01
0.0000000e+00
5.3175962e-01
-3.4440541e-01
0.0000000e+00
2.8381020e-01
-5.9270197e-01
-5.9965080e-01
3.5117829e-01
5.1499152e-01
-3.8967982e-01
-5.2733803e-01
0.0000000e+00
0.0000000e+00
4.6456921e-01
0.0000000e+00
0.0000000e+00
4.0230453e-01
-5.8957326e-01
-4.3341523e-01
5.3582680e-01
0.0000000e+00
4.9619305e-01
0.0000000e+00
5.3475416e-01
-5.3008009e-02
0.0000000e+00
0.0000000e+00
-1.0580673e-01
0.0000000e+00
0.0000000e+00
5.3157252e-01
0.0000000e+00
4.3626398e-01
-5.6154758e-01
5.2629441e-01
0.0000000e+00
-1.5818772e-01
3.1042266e-01
-6.1915499e-01
2.3852380e-01
-6.0694873e-01
-2.0994413e-01
5.1894063e-01
3.6676168e-01
-6.1528468e-01
0.0000000e+00
0.0000000e+00
-4.7543868e-01
4.7543848e-01
5.0954038e-01
-2.6087162e-01
0.0000000e+00
0.0000000e+00
0.0000000e+00
0.0000000e+00
-3.1076902e-01
4.0624002e-01
-5.9353709e-01
4.9813065e-01
4.5280987e-01
-5.1558399e-01
-6.3596457e-01
2.6839361e-01
4.8475665e-01
-3.5943928e-01
0.0000000e+00
0.0000000e+00
3.2977685e-01
-6.3856429e-01
1.9206858e-01
-6.1867702e-01