# vtk DataFile Version 4.0
vtk output
ASCII
DATASET UNSTRUCTURED_GRID
POINTS 961 float
1.0000000e+00 1.0000000e+00 0.0000000e+00 
1.0000000e+00 9.6666664e-01 0.0000000e+00 
9.6666664e-01 1.0000000e+00 0.0000000e+00 
9.6666664e-01 9.6666664e-01 0.0000000e+00 
9.3333334e-01 1.0000000e+00 0.0000000e+00 
1.0000000e+00 9.3333334e-01 0.0000000e+00 
9.3333334e-01 9.6666664e-01 0.0000000e+00 
9.6666664e-01 9.3333334e-01 0.0000000e+00 
9.3333334e-01 9.3333334e-01 0.0000000e+00 
1.0000000e+00 8.9999998e-01 0.0000000e+00 
8.9999998e-01 1.0000000e+00 0.0000000e+00 
9.6666664e-01 8.9999998e-01 0.0000000e+00 
8.9999998e-01 9.6666664e-01 0.0000000e+00 
9.3333334e-01 8.9999998e-01 0.0000000e+00 
8.9999998e-01 9.3333334e-01 0.0000000e+00 
1.0000000e+00 8.6666667e-01 0.0000000e+00 
8.6666667e-01 1.0000000e+00 0.0000000e+00 
8.6666667e-01 9.6666664e-01 0.0000000e+00 
9.6666664e-01 8.6666667e-01 0.0000000e+00 
8.9999998e-01 8.9999998e-01 0.0000000e+00 
8.6666667e-01 9.3333334e-01 0.0000000e+00 
9.3333334e-01 8.6666667e-01 0.0000000e+00 
8.3333331e-01 1.0000000e+00 0.0000000e+00 
1.0000000e+00 8.3333331e-01 0.0000000e+00 
8.9999998e-01 8.6666667e-01 0.0000000e+00 
8.6666667e-01 8.9999998e-01 0.0000000e+00 
9.6666664e-01 8.3333331e-01 0.0000000e+00 
8.3333331e-01 9.6666664e-01 0.0000000e+00 
9.3333334e-01 8.3333331e-01 0.0000000e+00 
8.3333331e-01 9.3333334e-01 0.0000000e+00 
8.6666667e-01 8.6666667e-01 0.0000000e+00 
8.9999998e-01 8.3333331e-01 0.0000000e+00 
8.3333331e-01 8.9999998e-01 0.0000000e+00 
8.0000001e-01 1.0000000e+00 0.0000000e+00 
1.0000000e+00 8.0000001e-01 0.0000000e+00 
9.6666664e-01 8.0000001e-01 0.0000000e+00 
8.0000001e-01 9.6666664e-01 0.0000000e+00 
8.0000001e-01 9.3333334e-01 0.0000000e+00 
9.3333334e-01 8.0000001e-01 0.0000000e+00 
8.6666667e-01 8.3333331e-01 0.0000000e+00 
8.3333331e-01 8.6666667e-01 0.0000000e+00 
8.9999998e-01 8.0000001e-01 0.0000000e+00 
8.0000001e-01 8.9999998e-01 0.0000000e+00 
1.0000000e+00 7.6666665e-01 0.0000000e+00 
7.6666665e-01 1.0000000e+00 0.0000000e+00 
7.6666665e-01 9.6666664e-01 0.0000000e+00 
9.6666664e-01 7.6666665e-01 0.0000000e+00 
8.3333331e-01 8.3333331e-01 0.0000000e+00 
8.6666667e-01 8.0000001e-01 0.0000000e+00 
8.0000001e-01 8.6666667e-01 0.0000000e+00 
7.6666665e-01 9.3333334e-01 0.0000000e+00 
9.3333334e-01 7.6666665e-01 0.0000000e+00 
7.6666665e-01 8.9999998e-01 0.0000000e+00 
8.9999998e-01 7.6666665e-01 0.0000000e+00 
8.0000001e-01 8.3333331e-01 0.0000000e+00 
8.3333331e-01 8.0000001e-01 0.0000000e+00 
7.3333335e-01 1.0000000e+00 0.0000000e+00 
1.0000000e+00 7.3333335e-01 0.0000000e+00 
7.6666665e-01 8.6666667e-01 0.0000000e+00 
7.3333335e-01 9.6666664e-01 0.0000000e+00 
9.6666664e-01 7.3333335e-01 0.0000000e+00 
8.6666667e-01 7.6666665e-01 0.0000000e+00 
9.3333334e-01 7.3333335e-01 0.0000000e+00 
7.3333335e-01 9.3333334e-01 0.0000000e+00 
8.0000001e-01 8.0000001e-01 0.0000000e+00 
7.3333335e-01 8.9999998e-01 0.0000000e+00 
8.9999998e-01 7.3333335e-01 0.0000000e+00 
8.3333331e-01 7.6666665e-01 0.0000000e+00 
7.6666665e-01 8.3333331e-01 0.0000000e+00 
8.6666667e-01 7.3333335e-01 0.0000000e+00 
7.3333335e-01 8.6666667e-01 0.0000000e+00 
6.9999999e-01 1.0000000e+00 0.0000000e+00 
1.0000000e+00 6.9999999e-01 0.0000000e+00 
6.9999999e-01 9.6666664e-01 0.0000000e+00 
9.6666664e-01 6.9999999e-01 0.0000000e+00 
7.6666665e-01 8.0000001e-01 0.0000000e+00 
8.0000001e-01 7.6666665e-01 0.0000000e+00 
9.3333334e-01 6.9999999e-01 0.0000000e+00 
6.9999999e-01 9.3333334e-01 0.0000000e+00 
7.3333335e-01 8.3333331e-01 0.0000000e+00 
8.3333331e-01 7.3333335e-01 0.0000000e+00 
6.9999999e-01 8.9999998e-01 0.0000000e+00 
8.9999998e-01 6.9999999e-01 0.0000000e+00 
8.6666667e-01 6.9999999e-01 0.0000000e+00 
6.9999999e-01 8.6666667e-01 0.0000000e+00 
7.6666665e-01 7.6666665e-01 0.0000000e+00 
7.3333335e-01 8.0000001e-01 0.0000000e+00 
1.0000000e+00 6.6666669e-01 0.0000000e+00 
6.6666669e-01 1.0000000e+00 0.0000000e+00 
8.0000001e-01 7.3333335e-01 0.0000000e+00 
6.6666669e-01 9.6666664e-01 0.0000000e+00 
9.6666664e-01 6.6666669e-01 0.0000000e+00 
6.6666669e-01 9.3333334e-01 0.0000000e+00 
9.3333334e-01 6.6666669e-01 0.0000000e+00 
6.9999999e-01 8.3333331e-01 0.0000000e+00 
8.3333331e-01 6.9999999e-01 0.0000000e+00 
6.6666669e-01 8.9999998e-01 0.0000000e+00 
8.9999998e-01 6.6666669e-01 0.0000000e+00 
7.6666665e-01 7.3333335e-01 0.0000000e+00 
7.3333335e-01 7.6666665e-01 0.0000000e+00 
8.6666667e-01 6.6666669e-01 0.0000000e+00 
6.6666669e-01 8.6666667e-01 0.0000000e+00 
8.0000001e-01 6.9999999e-01 0.0000000e+00 
6.9999999e-01 8.0000001e-01 0.0000000e+00 
1.0000000e+00 6.3333333e-01 0.0000000e+00 
6.3333333e-01 1.0000000e+00 0.0000000e+00 
6.3333333e-01 9.6666664e-01 0.0000000e+00 
9.6666664e-01 6.3333333e-01 0.0000000e+00 
6.3333333e-01 9.3333334e-01 0.0000000e+00 
9.3333334e-01 6.3333333e-01 0.0000000e+00 
8.3333331e-01 6.6666669e-01 0.0000000e+00 
6.6666669e-01 8.3333331e-01 0.0000000e+00 
7.3333335e-01 7.3333335e-01 0.0000000e+00 
7.6666665e-01 6.9999999e-01 0.0000000e+00 
6.9999999e-01 7.6666665e-01 0.0000000e+00 
6.3333333e-01 8.9999998e-01 0.0000000e+00 
8.9999998e-01 6.3333333e-01 0.0000000e+00 
6.6666669e-01 8.0000001e-01 0.0000000e+00 
8.0000001e-01 6.6666669e-01 0.0000000e+00 
8.6666667e-01 6.3333333e-01 0.0000000e+00 
6.3333333e-01 8.6666667e-01 0.0000000e+00 
1.0000000e+00 6.0000002e-01 0.0000000e+00 
6.0000002e-01 1.0000000e+00 0.0000000e+00 
6.0000002e-01 9.6666664e-01 0.0000000e+00 
6.9999999e-01 7.3333335e-01 0.0000000e+00 
7.3333335e-01 6.9999999e-01 0.0000000e+00 
9.6666664e-01 6.0000002e-01 0.0000000e+00 
6.3333333e-01 8.3333331e-01 0.0000000e+00 
8.3333331e-01 6.3333333e-01 0.0000000e+00 
6.0000002e-01 9.3333334e-01 0.0000000e+00 
9.3333334e-01 6.0000002e-01 0.0000000e+00 
6.6666669e-01 7.6666665e-01 0.0000000e+00 
7.6666665e-01 6.6666669e-01 0.0000000e+00 
8.9999998e-01 6.0000002e-01 0.0000000e+00 
6.0000002e-01 8.9999998e-01 0.0000000e+00 
8.0000001e-01 6.3333333e-01 0.0000000e+00 
6.3333333e-01 8.0000001e-01 0.0000000e+00 
6.0000002e-01 8.6666667e-01 0.0000000e+00 
8.6666667e-01 6.0000002e-01 0.0000000e+00 
6.9999999e-01 6.9999999e-01 0.0000000e+00 
6.6666669e-01 7.3333335e-01 0.0000000e+00 
7.3333335e-01 6.6666669e-01 0.0000000e+00 
5.6666666e-01 1.0000000e+00 0.0000000e+00 
1.0000000e+00 5.6666666e-01 0.0000000e+00 
6.0000002e-01 8.3333331e-01 0.0000000e+00 
8.3333331e-01 6.0000002e-01 0.0000000e+00 
7.6666665e-01 6.3333333e-01 0.0000000e+00 
6.3333333e-01 7.6666665e-01 0.0000000e+00 
9.6666664e-01 5.6666666e-01 0.0000000e+00 
5.6666666e-01 9.6666664e-01 0.0000000e+00 
5.6666666e-01 9.3333334e-01 0.0000000e+00 
9.3333334e-01 5.6666666e-01 0.0000000e+00 
5.6666666e-01 8.9999998e-01 0.0000000e+00 
8.9999998e-01 5.6666666e-01 0.0000000e+00 
6.0000002e-01 8.0000001e-01 0.0000000e+00 
8.0000001e-01 6.0000002e-01 0.0000000e+00 
6.9999999e-01 6.6666669e-01 0.0000000e+00 
6.6666669e-01 6.9999999e-01 0.0000000e+00 
7.3333335e-01 6.3333333e-01 0.0000000e+00 
5.6666666e-01 8.6666667e-01 0.0000000e+00 
6.3333333e-01 7.3333335e-01 0.0000000e+00 
8.6666667e-01 5.6666666e-01 0.0000000e+00 
7.6666665e-01 6.0000002e-01 0.0000000e+00 
6.0000002e-01 7.6666665e-01 0.0000000e+00 
8.3333331e-01 5.6666666e-01 0.0000000e+00 
5.6666666e-01 8.3333331e-01 0.0000000e+00 
1.0000000e+00 5.3333336e-01 0.0000000e+00 
5.3333336e-01 1.0000000e+00 0.0000000e+00 
9.6666664e-01 5.3333336e-01 0.0000000e+00 
5.3333336e-01 9.6666664e-01 0.0000000e+00 
9.3333334e-01 5.3333336e-01 0.0000000e+00 
5.3333336e-01 9.3333334e-01 0.0000000e+00 
6.6666669e-01 6.6666669e-01 0.0000000e+00 
6.3333333e-01 6.9999999e-01 0.0000000e+00 
6.9999999e-01 6.3333333e-01 0.0000000e+00 
5.3333336e-01 8.9999998e-01 0.0000000e+00 
8.9999998e-01 5.3333336e-01 0.0000000e+00 
5.6666666e-01 8.0000001e-01 0.0000000e+00 
8.0000001e-01 5.6666666e-01 0.0000000e+00 
7.3333335e-01 6.0000002e-01 0.0000000e+00 
6.0000002e-01 7.3333335e-01 0.0000000e+00 
8.6666667e-01 5.3333336e-01 0.0000000e+00 
5.3333336e-01 8.6666667e-01 0.0000000e+00 
5.6666666e-01 7.6666665e-01 0.0000000e+00 
7.6666665e-01 5.6666666e-01 0.0000000e+00 
5.3333336e-01 8.3333331e-01 0.0000000e+00 
8.3333331e-01 5.3333336e-01 0.0000000e+00 
6.3333333e-01 6.6666669e-01 0.0000000e+00 
6.6666669e-01 6.3333333e-01 0.0000000e+00 
1.0000000e+00 5.0000000e-01 0.0000000e+00 
5.0000000e-01 1.0000000e+00 0.0000000e+00 
6.9999999e-01 6.0000002e-01 0.0000000e+00 
6.0000002e-01 6.9999999e-01 0.0000000e+00 
9.6666664e-01 5.0000000e-01 0.0000000e+00 
5.0000000e-01 9.6666664e-01 0.0000000e+00 
9.3333334e-01 5.0000000e-01 0.0000000e+00 
5.0000000e-01 9.3333334e-01 0.0000000e+00 
5.3333336e-01 8.0000001e-01 0.0000000e+00 
8.0000001e-01 5.3333336e-01 0.0000000e+00 
7.3333335e-01 5.6666666e-01 0.0000000e+00 
5.6666666e-01 7.3333335e-01 0.0000000e+00 
8.9999998e-01 5.0000000e-01 0.0000000e+00 
5.0000000e-01 8.9999998e-01 0.0000000e+00 
8.6666667e-01 5.0000000e-01 0.0000000e+00 
5.0000000e-01 8.6666667e-01 0.0000000e+00 
6.3333333e-01 6.3333333e-01 0.0000000e+00 
6.0000002e-01 6.6666669e-01 0.0000000e+00 
6.6666669e-01 6.0000002e-01 0.0000000e+00 
7.6666665e-01 5.3333336e-01 0.0000000e+00 
5.3333336e-01 7.6666665e-01 0.0000000e+00 
5.0000000e-01 8.3333331e-01 0.0000000e+00 
8.3333331e-01 5.0000000e-01 0.0000000e+00 
5.6666666e-01 6.9999999e-01 0.0000000e+00 
6.9999999e-01 5.6666666e-01 0.0000000e+00 
4.6666667e-01 1.0000000e+00 0.0000000e+00 
1.0000000e+00 4.6666667e-01 0.0000000e+00 
9.6666664e-01 4.6666667e-01 0.0000000e+00 
4.6666667e-01 9.6666664e-01 0.0000000e+00 
5.3333336e-01 7.3333335e-01 0.0000000e+00 
9.3333334e-01 4.6666667e-01 0.0000000e+00 
7.3333335e-01 5.3333336e-01 0.0000000e+00 
4.6666667e-01 9.3333334e-01 0.0000000e+00 
8.0000001e-01 5.0000000e-01 0.0000000e+00 
5.0000000e-01 8.0000001e-01 0.0000000e+00 
8.9999998e-01 4.6666667e-01 0.0000000e+00 
4.6666667e-01 8.9999998e-01 0.0000000e+00 
6.0000002e-01 6.3333333e-01 0.0000000e+00 
6.3333333e-01 6.0000002e-01 0.0000000e+00 
6.6666669e-01 5.6666666e-01 0.0000000e+00 
5.6666666e-01 6.6666669e-01 0.0000000e+00 
[...]
POINT_DATA 961
FIELD FieldData 1
TEMPERATURE 1 961  float
0.0000000e+00
0.0000000e+00
0.0000000e+00
0.0000000e+00
0.0000000e+00
0.0000000e+00
0.0000000e+00
0.0000000e+00
0.0000000e+00
0.0000000e+00
0.0000000e+00
0.0000000e+00
0.0000000e+00
0.0000000e+00
0.0000000e+00
0.0000000e+00
0.0000000e+00
0.0000000e+00
0.0000000e+00
0.0000000e+00
0.0000000e+00
0.0000000e+00
0.0000000e+00
0.0000000e+00
0.0000000e+00
0.0000000e+00
0.0000000e+00
0.0000000e+00
0.0000000e+00
0.0000000e+00
0.0000000e+00
0.0000000e+00
0.0000000e+00
0.0000000e+00
0.0000000e+00
0.0000000e+00
0.0000000e+00
0.0000000e+00
0.0000000e+00
0.0000000e+00
0.0000000e+00
0.0000000e+00
0.0000000e+00
0.0000000e+00
0.0000000e+00
0.0000000e+00
0.0000000e+00
0.0000000e+00
0.0000000e+00
0.0000000e+00
0.0000000e+00
0.0000000e+00
0.0000000e+00
0.0000000e+00
0.0000000e+00
0.0000000e+00
0.0000000e+00
0.0000000e+00
0.0000000e+00
0.0000000e+00
0.0000000e+00
0.0000000e+00
0.0000000e+00
0.0000000e+00
0.0000000e+00
0.0000000e+00
0.0000000e+00
0.0000000e+00
0.0000000e+00
0.0000000e+00
0.0000000e+00
0.0000000e+00
0.0000000e+00
0.0000000e+00
0.0000000e+00
0.0000000e+00
0.0000000e+00
0.0000000e+00
0.0000000e+00
0.0000000e+00
0.0000000e+00
0.0000000e+00
0.0000000e+00
0.0000000e+00
0.0000000e+00
0.0000000e+00
0.0000000e+00
0.0000000e+00
0.0000000e+00
0.0000000e+00
0.0000000e+00
0.0000000e+00
0.0000000e+00
0.0000000e+00
0.0000000e+00
0.0000000e+00
0.0000000e+00
0.0000000e+00
0.0000000e+00
0.0000000e+00
0.0000000e+00
0.0000000e+00
0.0000000e+00
0.0000000e+00
0.0000000e+00
0.0000000e+00
0.0000000e+00
0.0000000e+00
0.0000000e+00
0.0000000e+00
0.0000000e+00
0.0000000e+00
0.0000000e+00
0.0000000e+00
0.0000000e+00
0.0000000e+00
0.0000000e+00
0.0000000e+00
0.0000000e+00
0.0000000e+00
0.0000000e+00
0.0000000e+00
0.0000000e+00
0.0000000e+00
0.0000000e+00
0.0000000e+00
0.0000000e+00
0.0000000e+00
0.0000000e+00
0.0000000e+00
0.0000000e+00
0.0000000e+00
0.0000000e+00
0.0000000e+00
0.0000000e+00
0.0000000e+00
0.0000000e+00
0.0000000e+00
0.0000000e+00
-4.9254522e-01
-5.9827614e-01
-3.9062169e-01
0.0000000e+00
0.0000000e+00
0.0000000e+00
0.0000000e+00
0.0000000e+00
0.0000000e+00
0.0000000e+00
0.0000000e+00
0.0000000e+00
0.0000000e+00
0.0000000e+00
0.0000000e+00
0.0000000e+00
0.0000000e+00
-4.0868661e-01
-5.1283169e-01
-3.0928811e-01
0.0000000e+00
-6.1821431e-01
0.0000000e+00
-2.1852161e-01
-7.2176933e-01
0.0000000e+00
0.0000000e+00
0.0000000e+00
0.0000000e+00
0.0000000e+00
0.0000000e+00
0.0000000e+00
0.0000000e+00
-4.2974696e-01
-5.3438473e-01
-3.2711789e-01
0.0000000e+00
0.0000000e+00
0.0000000e+00
0.0000000e+00
-2.3045100e-01
-6.3679481e-01
0.0000000e+00
0.0000000e+00
-7.3661429e-01
-1.4354764e-01
0.0000000e+00
0.0000000e+00
-4.5092085e-01
-3.4703001e-01
0.0000000e+00
0.0000000e+00
-2.4593912e-01
-5.5371624e-01
0.0000000e+00
0.0000000e+00
0.0000000e+00
0.0000000e+00
0.0000000e+00
0.0000000e+00
-1.5289316e-01
-6.5287858e-01
0.0000000e+00
0.0000000e+00
0.0000000e+00
0.0000000e+00
-3.6758924e-01
-4.7122404e-01
-2.6428092e-01
-7.1150333e-02
-7.4606395e-01
0.0000000e+00
0.0000000e+00
-5.6936800e-01
-1.6466740e-01
0.0000000e+00
0.0000000e+00
0.0000000e+00
0.0000000e+00
-6.6336006e-01
0.0000000e+00
-7.6179229e-02
0.0000000e+00
0.0000000e+00
0.0000000e+00
0.0000000e+00
0.0000000e+00
-3.8305324e-01
-2.7906832e-01
-1.7753340e-01
-4.8506349e-01
0.0000000e+00
0.0000000e+00
-7.4876851e-01
6.3171159e-05
-8.3221547e-02
-5.8137643e-01
0.0000000e+00
0.0000000e+00
-2.9103020e-01
0.0000000e+00
0.0000000e+00
-6.6660416e-01
1.6854942e-04
0.0000000e+00
0.0000000e+00
-1.8775776e-01
-3.9452216e-01
0.0000000e+00
0.0000000e+00
0.0000000e+00
0.0000000e+00
-4.9373165e-01
-8.9174457e-02
0.0000000e+00
0.0000000e+00
0.0000000e+00
0.0000000e+00
7.0809856e-02
-7.4606365e-01
-5.8486259e-01
2.3145616e-05
-2.9964823e-01
-1.9576490e-01
0.0000000e+00
0.0000000e+00
-4.0145382e-01
-9.4353646e-02
-6.6336107e-01
7.6036841e-02
0.0000000e+00
0.0000000e+00
0.0000000e+00
0.0000000e+00
0.0000000e+00
0.0000000e+00
-4.9682027e-01
2.7454580e-05
0.0000000e+00
0.0000000e+00
0.0000000e+00
0.0000000e+00
-5.8137840e-01
8.3296284e-02
1.4356479e-01
-7.3661268e-01
-2.0157090e-01
0.0000000e+00
-3.0489075e-01
0.0000000e+00
-9.8404549e-02
-4.0378737e-01
2.2017242e-05
0.0000000e+00
0.0000000e+00
-6.5288013e-01
1.5298586e-01
8.9231268e-02
-4.9373487e-01
0.0000000e+00
0.0000000e+00
0.0000000e+00
0.0000000e+00
0.0000000e+00
0.0000000e+00
0.0000000e+00
-1.0132258e-01
-2.0508413e-01
0.0000000e+00
-3.0664811e-01
1.6594820e-05
0.0000000e+00
0.0000000e+00
-5.6937206e-01
1.6476665e-01
-7.2176397e-01
2.1851780e-01
0.0000000e+00
-4.0145838e-01
0.0000000e+00
9.4396576e-02
0.0000000e+00
0.0000000e+00
-6.3679498e-01
2.3048097e-01
1.7758662e-01
-4.8506966e-01
-1.0308959e-01
1.1963390e-05
-2.0626397e-01
0.0000000e+00
0.0000000e+00
0.0000000e+00
9.8436907e-02
-3.0489671e-01
0.0000000e+00
0.0000000e+00
0.0000000e+00
0.0000000e+00
0.0000000e+00
-5.5372119e-01
2.4598055e-01
0.0000000e+00
0.0000000e+00
0.0000000e+00
0.0000000e+00
-3.9453119e-01
1.8779685e-01
0.0000000e+00
0.0000000e+00
-1.0368353e-01
7.7829909e-06
-4.7123235e-01
2.6432061e-01
-2.0509130e-01
0.0000000e+00
-6.1821020e-01
0.0000000e+00
3.0927631e-01
1.0134607e-01
-2.9966030e-01
1.9579475e-01
0.0000000e+00
0.0000000e+00
0.0000000e+00
0.0000000e+00
0.0000000e+00
0.0000000e+00
-5.3438753e-01
3.2712680e-01
-3.8306653e-01
0.0000000e+00
0.0000000e+00
2.7910006e-01
0.0000000e+00
0.0000000e+00
0.0000000e+00
0.0000000e+00
3.7102172e-06
1.0310507e-01
-1.0309760e-01
0.0000000e+00
0.0000000e+00
-2.0158565e-01
2.0159322e-01
3.4705099e-01
-4.5093021e-01
3.9058524e-01
-5.9826058e-01
0.0000000e+00
0.0000000e+00
-2.9104882e-01
2.9105625e-01
0.0000000e+00
0.0000000e+00
-5.1282609e-01
4.0867683e-01
-5.5004801e-07
1.0369115e-01
-3.6760595e-01
3.6761218e-01
0.0000000e+00
0.0000000e+00
0.0000000e+00
2.0509943e-01
0.0000000e+00
-1.0133913e-01
0.0000000e+00
0.0000000e+00
0.0000000e+00
0.0000000e+00
0.0000000e+00
2.9966900e-01
-1.9578819e-01
0.0000000e+00
4.2975396e-01
0.0000000e+00
0.0000000e+00
-4.2975178e-01
-2.7909440e-01
0.0000000e+00
0.0000000e+00
3.8307542e-01
0.0000000e+00
0.0000000e+00
1.0309695e-01
-5.2760079e-06
2.0627218e-01
3.0490598e-01
0.0000000e+00
-9.8430850e-02
0.0000000e+00
4.5093679e-01
-3.4704733e-01
4.9251777e-01
-4.9252307e-01
0.0000000e+00
0.0000000e+00
0.0000000e+00
0.0000000e+00
-1.8779165e-01
3.9454180e-01
0.0000000e+00
0.0000000e+00
0.0000000e+00
0.0000000e+00
0.0000000e+00
0.0000000e+00
5.1282489e-01
-4.0867823e-01
4.7124398e-01
-2.6431689e-01
2.0509198e-01
0.0000000e+00
1.0132933e-01
0.0000000e+00
0.0000000e+00
0.0000000e+00
-1.0761286e-05
3.0665734e-01
0.0000000e+00
0.0000000e+00
4.0146944e-01
-9.4391674e-02
-3.2712582e-01
5.3439158e-01
0.0000000e+00
0.0000000e+00
0.0000000e+00
0.0000000e+00
4.8508385e-01
-1.7758290e-01
0.0000000e+00
0.0000000e+00
0.0000000e+00
0.0000000e+00
2.0157802e-01
0.0000000e+00
0.0000000e+00
9.8410405e-02
0.0000000e+00
0.0000000e+00
3.0489948e-01
5.9825289e-01
-3.9058942e-01
5.5373514e-01
-2.4597855e-01
0.0000000e+00
0.0000000e+00
-1.7269595e-05
4.0379810e-01
0.0000000e+00
0.0000000e+00
0.0000000e+00
0.0000000e+00
4.9374861e-01
-8.9227669e-02
0.0000000e+00
0.0000000e+00
-3.0927783e-01
6.1820841e-01
5.6940073e-01
-1.6476431e-01
0.0000000e+00
0.0000000e+00
0.0000000e+00
0.0000000e+00
1.9577098e-01
2.9965600e-01
9.4358385e-02
4.0146381e-01
4.9683228e-01
0.0000000e+00
0.0000000e+00
0.0000000e+00
-2.3951023e-05
0.0000000e+00
0.0000000e+00
0.0000000e+00
6.3680333e-01
-2.3048115e-01
0.0000000e+00
0.0000000e+00
0.0000000e+00
0.0000000e+00
0.0000000e+00
0.0000000e+00
-8.3294094e-02
5.8139330e-01
0.0000000e+00
0.0000000e+00
0.0000000e+00
0.0000000e+00
2.9103673e-01
3.9453104e-01
1.8776260e-01
0.0000000e+00
0.0000000e+00
0.0000000e+00
0.0000000e+00
-1.5298530e-01
6.5289968e-01
4.9374327e-01
8.9177966e-02
0.0000000e+00
0.0000000e+00
0.0000000e+00
0.0000000e+00
-2.0961674e-05
5.8487034e-01
-2.1851996e-01
7.2175664e-01
0.0000000e+00
0.0000000e+00
0.0000000e+00
0.0000000e+00
0.0000000e+00
0.0000000e+00
0.0000000e+00
0.0000000e+00
6.6328627e-01
-7.6036021e-02
0.0000000e+00
0.0000000e+00
2.7907336e-01
3.8306049e-01
0.0000000e+00
0.0000000e+00
1.7753692e-01
4.8507440e-01
0.0000000e+00
0.0000000e+00
0.0000000e+00
0.0000000e+00
8.3223715e-02
5.8139288e-01
0.0000000e+00
0.0000000e+00
-1.4356612e-01
7.3659569e-01
0.0000000e+00
0.0000000e+00
0.0000000e+00
0.0000000e+00
-1.6774923e-04
6.6670215e-01
0.0000000e+00
0.0000000e+00
0.0000000e+00
0.0000000e+00
3.6759439e-01
2.6428437e-01
4.7123224e-01
7.4592102e-01
0.0000000e+00
-7.0810780e-02
0.0000000e+00
0.0000000e+00
0.0000000e+00
0.0000000e+00
0.0000000e+00
5.6938416e-01
1.6466975e-01
0.0000000e+00
0.0000000e+00
0.0000000e+00
0.0000000e+00
0.0000000e+00
0.0000000e+00
0.0000000e+00
6.6333044e-01
0.0000000e+00
7.6180108e-02
0.0000000e+00
0.0000000e+00
0.0000000e+00
0.0000000e+00
0.0000000e+00
0.0000000e+00
-6.4019099e-05
7.4890584e-01
0.0000000e+00
0.0000000e+00
0.0000000e+00
0.0000000e+00
3.4703350e-01
4.5092615e-01
2.4594121e-01
5.5372506e-01
0.0000000e+00
0.0000000e+00
0.0000000e+00
0.0000000e+00
0.0000000e+00
0.0000000e+00
6.5288353e-01
1.5289374e-01
0.0000000e+00
0.0000000e+00
0.0000000e+00
0.0000000e+00
0.0000000e+00
0.0000000e+00
0.0000000e+00
7.4600995e-01
7.1149379e-02
0.0000000e+00
0.0000000e+00
0.0000000e+00
0.0000000e+00
0.0000000e+00
0.0000000e+00
0.0000000e+00
0.0000000e+00
0.0000000e+00
0.0000000e+00
0.0000000e+00
4.2974913e-01
0.0000000e+00
0.0000000e+00
0.0000000e+00
0.0000000e+00
3.2711905e-01
5.3438777e-01
2.3045091e-01
6.3679564e-01
0.0000000e+00
0.0000000e+00
0.0000000e+00
0.0000000e+00
1.4354619e-01
7.3659497e-01
0.0000000e+00
0.0000000e+00
0.0000000e+00
0.0000000e+00
0.0000000e+00
0.0000000e+00
0.0000000e+00
0.0000000e+00
0.0000000e+00
0.0000000e+00
0.0000000e+00
0.0000000e+00
5.1283038e-01
0.0000000e+00
0.0000000e+00
4.0868554e-01
0.0000000e+00
0.0000000e+00
0.0000000e+00
0.0000000e+00
3.0928662e-01
6.1821038e-01
0.0000000e+00
0.0000000e+00
0.0000000e+00
0.0000000e+00
0.0000000e+00
0.0000000e+00
0.0000000e+00
0.0000000e+00
0.0000000e+00
0.0000000e+00
7.2175479e-01
2.1851915e-01
0.0000000e+00
0.0000000e+00
0.0000000e+00
0.0000000e+00
0.0000000e+00
0.0000000e+00
0.0000000e+00
0.0000000e+00
0.0000000e+00
0.0000000e+00
0.0000000e+00
0.0000000e+00
0.0000000e+00
0.0000000e+00
0.0000000e+00
0.0000000e+00
4.9253988e-01
0.0000000e+00
0.0000000e+00
3.9061734e-01
5.9826773e-01
0.0000000e+00
0.0000000e+00
0.0000000e+00
0.0000000e+00
0.0000000e+00
0.0000000e+00
0.0000000e+00
0.0000000e+00
0.0000000e+00
0.0000000e+00
0.0000000e+00
0.0000000e+00
0.0000000e+00
0.0000000e+00
0.0000000e+00
0.0000000e+00
0.0000000e+00
0.0000000e+00
0.0000000e+00
0.0000000e+00
0.0000000e+00
0.0000000e+00
0.0000000e+00
0.0000000e+00
0.0000000e+00
0.0000000e+00
0.0000000e+00
0.0000000e+00
0.0000000e+00
0.0000000e+00
0.0000000e+00
0.0000000e+00
0.0000000e+00
0.0000000e+00
0.0000000e+00
0.0000000e+00
0.0000000e+00
0.0000000e+00
0.0000000e+00
0.0000000e+00
0.0000000e+00
0.0000000e+00
0.0000000e+00
0.0000000e+00
0.0000000e+00
0.0000000e+00
0.0000000e+00
0.0000000e+00
0.0000000e+00
0.0000000e+00
0.0000000e+00
0.0000000e+00
0.0000000e+00
0.0000000e+00
0.0000000e+00
0.0000000e+00
0.0000000e+00
0.0000000e+00
0.0000000e+00
0.0000000e+00
0.0000000e+00
0.0000000e+00
0.0000000e+00
0.0000000e+00
0.0000000e+00
0.0000000e+00
0.0000000e+00
0.0000000e+00
0.0000000e+00
0.0000000e+00
0.0000000e+00
0.0000000e+00
0.0000000e+00
0.0000000e+00
0.0000000e+00
0.0000000e+00
0.0000000e+00
0.0000000e+00
0.0000000e+00
0.0000000e+00
0.0000000e+00
0.0000000e+00
0.0000000e+00
0.0000000e+00
0.0000000e+00
0.0000000e+00
0.0000000e+00
0.0000000e+00
0.0000000e+00
0.0000000e+00
0.0000000e+00
0.0000000e+00
0.0000000e+00
0.0000000e+00
0.0000000e+00
0.0000000e+00
0.0000000e+00
0.0000000e+00
0.0000000e+00
0.0000000e+00
0.0000000e+00
0.0000000e+00
0.0000000e+00
0.0000000e+00
0.0000000e+00
0.0000000e+00
0.0000000e+00
0.0000000e+00
0.0000000e+00
0.0000000e+00
0.0000000e+00
0.0000000e+00
0.0000000e+00
0.0000000e+00
0.0000000e+00
0.0000000e+00
0.0000000e+00
0.0000000e+00
0.0000000e+00
0.0000000e+00
0.0000000e+00
0.0000000e+00
0.0000000e+00
0.0000000e+00
0.0000000e+00
0.0000000e+00
0.0000000e+00
0.0000000e+00
0.0000000e+00
0.0000000e+00
0.0000000e+00
0.0000000e+00
0.0000000e+00
0.0000000e+00
0.0000000e+00
0.0000000e+00
0.0000000e+00
0.0000000e+00
0.0000000e+00
0.0000000e+00
0.0000000e+00
0.0000000e+00
0.0000000e+00
0.0000000e+00
0.0000000e+00
0.0000000e+00
0.0000000e+00
0.0000000e+00
0.0000000e+00
0.0000000e+00
0.0000000e+00
0.0000000e+00
0.0000000e+00
0.0000000e+00
0.0000000e+00
0.0000000e+00
0.0000000e+00
0.0000000e+00
0.0000000e+00
0.0000000e+00
0.0000000e+00
0.0000000e+00
0.0000000e+00
0.0000000e+00
0.0000000e+00
0.0000000e+00
0.0000000e+00
0.0000000e+00
0.0000000e+00
0.0000000e+00
0.0000000e+00
0.0000000e+00
0.0000000e+00
0.0000000e+00
0.0000000e+00
0.0000000e+00
0.0000000e+00
0.0000000e+00
0.0000000e+00
0.0000000e+00
0.0000000e+00
0.0000000e+00
0.0000000e+00
0.0000000e+00
0.0000000e+00
0.0000000e+00
0.0000000e+00
0.0000000e+00
0.0000000e+00
0.0000000e+00
0.0000000e+00
0.0000000e+00
0.0000000e+00
0.0000000e+00
0.0000000e+00
0.0000000e+00
0.0000000e+00
0.0000000e+00
0.0000000e+00
0.0000000e+00
0.0000000e+00
0.0000000e+00
0.0000000e+00
0.0000000e+00
0.0000000e+00
0.0000000e+00
0.0000000e+00
0.0000000e+00
0.0000000e+00
0.0000000e+00
0.0000000e+00
0.0000000e+00
0.0000000e+00
0.0000000e+00
0.0000000e+00
0.0000000e+00
0.0000000e+00
0.0000000e+00
0.0000000e+00
0.0000000e+00
0.0000000e+00
0.0000000e+00
0.0000000e+00
0.0000000e+00
0.0000000e+00
0.0000000e+00
0.0000000e+00
0.0000000e+00
0.0000000e+00
0.0000000e+00
0.0000000e+00
0.0000000e+00
0.0000000e+00
0.0000000e+00
0.0000000e+00
CELL_DATA 900
FIELD FieldData 0
