# vtk DataFile Version 4.0
vtk output
ASCII
DATASET UNSTRUCTURED_GRID
POINTS 5866 float
0.0000000e+00 0.0000000e+00 0.0000000e+00 
0.0000000e+00 1.2987013e-02 0.0000000e+00 
1.2987013e-02 0.0000000e+00 0.0000000e+00 
1.1258330e-02 1.9480519e-02 0.0000000e+00 
2.1033945e-02 1.1334779e-02 0.0000000e+00 
2.5974026e-02 0.0000000e+00 0.0000000e+00 
0.0000000e+00 2.5974026e-02 0.0000000e+00 
2.2482818e-02 2.5935046e-02 0.0000000e+00 
1.1258330e-02 3.2467533e-02 0.0000000e+00 
3.2467533e-02 1.1258330e-02 0.0000000e+00 
3.8961038e-02 0.0000000e+00 0.0000000e+00 
0.0000000e+00 3.8961038e-02 0.0000000e+00 
2.2482818e-02 3.8922060e-02 0.0000000e+00 
3.8961038e-02 2.2516660e-02 0.0000000e+00 
4.4933960e-02 1.2429517e-02 0.0000000e+00 
1.1258330e-02 4.5454547e-02 0.0000000e+00 
3.5373885e-02 3.3892058e-02 0.0000000e+00 
0.0000000e+00 5.1948052e-02 0.0000000e+00 
5.1948052e-02 0.0000000e+00 0.0000000e+00 
4.9288325e-02 2.7414713e-02 0.0000000e+00 
2.2482818e-02 5.1909070e-02 0.0000000e+00 
3.3741150e-02 4.5415565e-02 0.0000000e+00 
5.7977773e-02 1.3387399e-02 0.0000000e+00 
1.1258330e-02 5.8441557e-02 0.0000000e+00 
4.5287162e-02 4.3148294e-02 0.0000000e+00 
0.0000000e+00 6.4935066e-02 0.0000000e+00 
6.4935066e-02 0.0000000e+00 0.0000000e+00 
3.6400549e-02 5.6690179e-02 0.0000000e+00 
2.2482818e-02 6.4896084e-02 0.0000000e+00 
6.4845651e-02 2.8142396e-02 0.0000000e+00 
1.1258330e-02 7.1428575e-02 0.0000000e+00 
5.8287162e-02 4.3150436e-02 0.0000000e+00 
7.1394987e-02 1.3508950e-02 0.0000000e+00 
5.1785305e-02 5.4407693e-02 0.0000000e+00 
0.0000000e+00 7.7922076e-02 0.0000000e+00 
7.7922076e-02 0.0000000e+00 0.0000000e+00 
3.4812517e-02 7.1118250e-02 0.0000000e+00 
4.5283448e-02 6.5664954e-02 0.0000000e+00 
2.2482820e-02 7.7883102e-02 0.0000000e+00 
7.7840462e-02 2.8143665e-02 0.0000000e+00 
7.1287163e-02 4.3152578e-02 0.0000000e+00 
6.4785302e-02 5.4409839e-02 0.0000000e+00 
1.1258330e-02 8.4415585e-02 0.0000000e+00 
8.4385119e-02 1.3509311e-02 0.0000000e+00 
5.8283448e-02 6.5667093e-02 0.0000000e+00 
3.3741150e-02 8.4376603e-02 0.0000000e+00 
0.0000000e+00 9.0909094e-02 0.0000000e+00 
9.0909094e-02 0.0000000e+00 0.0000000e+00 
4.8484322e-02 7.7198587e-02 0.0000000e+00 
2.2482822e-02 9.0870112e-02 0.0000000e+00 
8.4287159e-02 4.3154724e-02 0.0000000e+00 
7.7785306e-02 5.4411981e-02 0.0000000e+00 
9.0835266e-02 2.8144851e-02 0.0000000e+00 
7.1283445e-02 6.5669239e-02 0.0000000e+00 
1.1258330e-02 9.7402595e-02 0.0000000e+00 
9.7375251e-02 1.3509020e-02 0.0000000e+00 
4.5279734e-02 8.8181615e-02 0.0000000e+00 
6.4781591e-02 7.6926500e-02 0.0000000e+00 
3.3741154e-02 9.7363621e-02 0.0000000e+00 
0.0000000e+00 1.0389610e-01 0.0000000e+00 
1.0389610e-01 0.0000000e+00 0.0000000e+00 
5.8279734e-02 8.8183753e-02 0.0000000e+00 
9.0785302e-02 5.4414127e-02 0.0000000e+00 
2.2482824e-02 1.0385713e-01 0.0000000e+00 
9.7287163e-02 4.3156866e-02 0.0000000e+00 
8.4283449e-02 6.5671384e-02 0.0000000e+00 
1.0383008e-01 2.8145533e-02 0.0000000e+00 
7.7781588e-02 7.6928645e-02 0.0000000e+00 
1.1258330e-02 1.1038961e-01 0.0000000e+00 
1.1036541e-01 1.3505408e-02 0.0000000e+00 
5.1777877e-02 9.9441014e-02 0.0000000e+00 
7.1279734e-02 8.8185899e-02 0.0000000e+00 
3.3741158e-02 1.1035063e-01 0.0000000e+00 
1.1688311e-01 0.0000000e+00 0.0000000e+00 
0.0000000e+00 1.1688311e-01 0.0000000e+00 
1.0378531e-01 5.4416269e-02 0.0000000e+00 
9.7283445e-02 6.5673530e-02 0.0000000e+00 
1.1028716e-01 4.3159012e-02 0.0000000e+00 
6.4777881e-02 9.9443160e-02 0.0000000e+00 
2.2482831e-02 1.1684415e-01 0.0000000e+00 
9.0781592e-02 7.6930784e-02 0.0000000e+00 
4.5276023e-02 1.1069828e-01 0.0000000e+00 
1.1682490e-01 2.8143195e-02 0.0000000e+00 
8.4279731e-02 8.8188045e-02 0.0000000e+00 
1.1258330e-02 1.2337662e-01 0.0000000e+00 
1.2335563e-01 1.3485387e-02 0.0000000e+00 
5.8276020e-02 1.1070041e-01 0.0000000e+00 
7.7777877e-02 9.9445306e-02 0.0000000e+00 
3.3741165e-02 1.2333764e-01 0.0000000e+00 
1.1028345e-01 6.5675668e-02 0.0000000e+00 
1.1678530e-01 5.4418415e-02 0.0000000e+00 
1.0378159e-01 7.6932929e-02 0.0000000e+00 
1.2987013e-01 0.0000000e+00 0.0000000e+00 
0.0000000e+00 1.2987013e-01 0.0000000e+00 
1.2328716e-01 4.3161154e-02 0.0000000e+00 
9.7279735e-02 8.8190190e-02 0.0000000e+00 
7.1276024e-02 1.1070256e-01 0.0000000e+00 
2.2482842e-02 1.2983117e-01 0.0000000e+00 
5.1774167e-02 1.2195767e-01 0.0000000e+00 
1.2981981e-01 2.8122738e-02 0.0000000e+00 
9.0777874e-02 9.9447444e-02 0.0000000e+00 
1.1258330e-02 1.3636364e-01 0.0000000e+00 
1.3634625e-01 1.3388057e-02 0.0000000e+00 
6.4774163e-02 1.2195982e-01 0.0000000e+00 
8.4276021e-02 1.1070471e-01 0.0000000e+00 
1.2328345e-01 6.5677814e-02 0.0000000e+00 
1.1678159e-01 7.6935075e-02 0.0000000e+00 
4.5272309e-02 1.3321494e-01 0.0000000e+00 
1.2978530e-01 5.4420557e-02 0.0000000e+00 
1.1027973e-01 8.8192329e-02 0.0000000e+00 
3.4366127e-02 1.3708584e-01 0.0000000e+00 
1.4285715e-01 0.0000000e+00 0.0000000e+00 
0.0000000e+00 1.4285715e-01 0.0000000e+00 
1.3628715e-01 4.3163300e-02 0.0000000e+00 
1.0377788e-01 9.9449590e-02 0.0000000e+00 
2.2482863e-02 1.4281820e-01 0.0000000e+00 
7.7774167e-02 1.2196197e-01 0.0000000e+00 
5.8272310e-02 1.3321708e-01 0.0000000e+00 
1.4281523e-01 2.7993562e-02 0.0000000e+00 
9.7276025e-02 1.1070685e-01 0.0000000e+00 
1.1258330e-02 1.4935064e-01 0.0000000e+00 
1.4933860e-01 1.2953714e-02 0.0000000e+00 
1.2978159e-01 7.6937221e-02 0.0000000e+00 
7.1272306e-02 1.3321923e-01 0.0000000e+00 
1.3628344e-01 6.5679960e-02 0.0000000e+00 
1.2327974e-01 8.8194475e-02 0.0000000e+00 
4.8476379e-02 1.4400145e-01 0.0000000e+00 
9.0774164e-02 1.2196410e-01 0.0000000e+00 
1.4278531e-01 5.4422703e-02 0.0000000e+00 
3.3741213e-02 1.4931168e-01 0.0000000e+00 
1.1677787e-01 9.9451736e-02 0.0000000e+00 
1.4928716e-01 4.3165442e-02 0.0000000e+00 
1.5584415e-01 0.0000000e+00 0.0000000e+00 
0.0000000e+00 1.5584415e-01 0.0000000e+00 
1.1027602e-01 1.1070899e-01 0.0000000e+00 
2.2482900e-02 1.5580523e-01 0.0000000e+00 
8.4272310e-02 1.3322136e-01 0.0000000e+00 
1.5581380e-01 2.7212065e-02 0.0000000e+00 
6.4770453e-02 1.4447647e-01 0.0000000e+00 
1.0377417e-01 1.2196625e-01 0.0000000e+00 
4.5268595e-02 1.5573159e-01 0.0000000e+00 
1.4278159e-01 7.6939359e-02 0.0000000e+00 
1.3627973e-01 8.8196620e-02 0.0000000e+00 
1.1258330e-02 1.6233766e-01 0.0000000e+00 
1.6232696e-01 1.3088863e-02 0.0000000e+00 
1.4928345e-01 6.5682106e-02 0.0000000e+00 
1.2977788e-01 9.9453874e-02 0.0000000e+00 
7.7770449e-02 1.4447862e-01 0.0000000e+00 
9.7272307e-02 1.3322350e-01 0.0000000e+00 
1.5578531e-01 5.4424845e-02 0.0000000e+00 
1.2327602e-01 1.1071113e-01 0.0000000e+00 
5.8268595e-02 1.5573373e-01 0.0000000e+00 
1.6229469e-01 4.1584689e-02 0.0000000e+00 
3.6078580e-02 1.6439405e-01 0.0000000e+00 
1.6883117e-01 0.0000000e+00 0.0000000e+00 
0.0000000e+00 1.6883117e-01 0.0000000e+00 
1.1677416e-01 1.2196840e-01 0.0000000e+00 
2.2482971e-02 1.6879229e-01 0.0000000e+00 
9.0770453e-02 1.4448076e-01 0.0000000e+00 
1.6880940e-01 2.7109068e-02 0.0000000e+00 
7.1268596e-02 1.5573588e-01 0.0000000e+00 
1.1027231e-01 1.3322565e-01 0.0000000e+00 
1.4927973e-01 8.8198766e-02 0.0000000e+00 
1.5578160e-01 7.6941505e-02 0.0000000e+00 
1.4277788e-01 9.9456020e-02 0.0000000e+00 
5.1766738e-02 1.6699100e-01 0.0000000e+00 
1.6228345e-01 6.5684244e-02 0.0000000e+00 
1.3627602e-01 1.1071328e-01 0.0000000e+00 
1.1258330e-02 1.7532468e-01 0.0000000e+00 
1.7531650e-01 1.3339830e-02 0.0000000e+00 
8.4268592e-02 1.5573803e-01 0.0000000e+00 
1.6878530e-01 5.4426990e-02 0.0000000e+00 
1.0377045e-01 1.4448291e-01 0.0000000e+00 
1.2977417e-01 1.2197053e-01 0.0000000e+00 
3.1542752e-02 1.7587827e-01 0.0000000e+00 
6.4766735e-02 1.6699314e-01 0.0000000e+00 
1.7529462e-01 4.1218352e-02 0.0000000e+00 
1.2327231e-01 1.3322780e-01 0.0000000e+00 
1.8181819e-01 0.0000000e+00 0.0000000e+00 
0.0000000e+00 1.8181819e-01 0.0000000e+00 
2.2483099e-02 1.8177938e-01 0.0000000e+00 
9.7268596e-02 1.5574017e-01 0.0000000e+00 
1.8180592e-01 2.6588365e-02 0.0000000e+00 
4.5264881e-02 1.7824826e-01 0.0000000e+00 
7.7766739e-02 1.6699529e-01 0.0000000e+00 
1.6227974e-01 8.8200904e-02 0.0000000e+00 
1.5577787e-01 9.9458165e-02 0.0000000e+00 
1.6878159e-01 7.6943651e-02 0.0000000e+00 
1.1677045e-01 1.4448506e-01 0.0000000e+00 
1.4927602e-01 1.1071543e-01 0.0000000e+00 
1.7528345e-01 6.5686390e-02 0.0000000e+00 
5.7643849e-02 1.7867452e-01 0.0000000e+00 
1.4277416e-01 1.2197268e-01 0.0000000e+00 
1.1258330e-02 1.8831168e-01 0.0000000e+00 
1.8830733e-01 1.3252681e-02 0.0000000e+00 
1.8178530e-01 5.4429132e-02 0.0000000e+00 
9.0766735e-02 1.6699743e-01 0.0000000e+00 
1.3627231e-01 1.3322994e-01 0.0000000e+00 
1.1026859e-01 1.5574232e-01 0.0000000e+00 
3.3741545e-02 1.8827276e-01 0.0000000e+00 
7.1264885e-02 1.7825255e-01 0.0000000e+00 
1.8828715e-01 4.3171875e-02 0.0000000e+00 
1.2977046e-01 1.4448720e-01 0.0000000e+00 
0.0000000e+00 1.9480519e-01 0.0000000e+00 
1.9480519e-01 0.0000000e+00 0.0000000e+00 
1.6877788e-01 9.9460311e-02 0.0000000e+00 
2.2483332e-02 1.9476655e-01 0.0000000e+00 
1.7527974e-01 8.8203050e-02 0.0000000e+00 
1.6227601e-01 1.1071756e-01 0.0000000e+00 
1.0376674e-01 1.6699956e-01 0.0000000e+00 
1.9479370e-01 2.8155262e-02 0.0000000e+00 
8.4264882e-02 1.7825468e-01 0.0000000e+00 
1.8178159e-01 7.6945789e-02 0.0000000e+00 
1.5577416e-01 1.2197483e-01 0.0000000e+00 
4.8036821e-02 1.9205238e-01 0.0000000e+00 
1.2326860e-01 1.5574446e-01 0.0000000e+00 
1.8828344e-01 6.5688536e-02 0.0000000e+00 
1.4927231e-01 1.3323209e-01 0.0000000e+00 
6.3286580e-02 1.9064999e-01 0.0000000e+00 
1.1258330e-02 2.0129870e-01 0.0000000e+00 
2.0129628e-01 1.3514131e-02 0.0000000e+00 
1.9478530e-01 5.4431275e-02 0.0000000e+00 
9.7264878e-02 1.7825682e-01 0.0000000e+00 
1.4277045e-01 1.4448935e-01 0.0000000e+00 
1.1676674e-01 1.6700171e-01 0.0000000e+00 
3.3741869e-02 2.0125984e-01 0.0000000e+00 
7.7763028e-02 1.8951194e-01 0.0000000e+00 
2.0128717e-01 4.3174017e-02 0.0000000e+00 
1.3626860e-01 1.5574659e-01 0.0000000e+00 
1.8177788e-01 9.9462450e-02 0.0000000e+00 
[...]
POINT_DATA 5866
FIELD FieldData 1
TEMPERATURE 1 5866  float
0.0000000e+00
0.0000000e+00
4.0788587e-02
3.5296902e-02
6.5985255e-02
8.1509285e-02
0.0000000e+00
7.0343085e-02
3.5177562e-02
1.0175303e-01
1.2209432e-01
0.0000000e+00
7.0040077e-02
1.2177496e-01
1.4058760e-01
3.5000555e-02
1.1026572e-01
0.0000000e+00
1.6247614e-01
1.5366173e-01
6.9637313e-02
1.0470954e-01
1.8097623e-01
3.4766182e-02
1.4047201e-01
0.0000000e+00
2.0258753e-01
1.1229125e-01
6.9107197e-02
2.0151493e-01
3.4473155e-02
1.8041478e-01
2.2221398e-01
1.5959847e-01
0.0000000e+00
2.4236174e-01
1.0644120e-01
1.3875787e-01
6.8466455e-02
2.4115945e-01
2.2003971e-01
1.9916752e-01
3.4124114e-02
2.6176924e-01
1.7820060e-01
1.0209853e-01
0.0000000e+00
2.8173256e-01
1.4728205e-01
6.7716576e-02
2.5929931e-01
2.3840465e-01
2.8040192e-01
2.1735080e-01
3.3718005e-02
3.0088863e-01
1.3633627e-01
1.9622584e-01
1.0090789e-01
0.0000000e+00
3.2063445e-01
1.7510974e-01
2.7724367e-01
6.6847444e-02
2.9812667e-01
2.5613451e-01
3.1917715e-01
2.3488456e-01
3.3254597e-02
3.3950716e-01
1.5408841e-01
2.1357870e-01
9.9486254e-02
3.5900271e-01
0.0000000e+00
3.1562006e-01
2.9449028e-01
3.3645675e-01
1.9230188e-01
6.5865636e-02
2.7315211e-01
1.3325885e-01
3.5742086e-01
2.5169066e-01
3.2737013e-02
3.7756142e-01
1.7114182e-01
2.3019125e-01
9.7950622e-02
3.3235458e-01
3.5346991e-01
3.1096387e-01
3.9677343e-01
0.0000000e+00
3.7422568e-01
2.8938258e-01
2.0873958e-01
6.4783774e-02
1.5018547e-01
3.9507133e-01
2.6769593e-01
3.2164905e-02
4.1499242e-01
1.8742070e-01
2.4598944e-01
3.6966437e-01
3.4825677e-01
1.2950364e-01
3.9073011e-01
3.2659161e-01
9.7920813e-02
4.3388373e-01
0.0000000e+00
4.1137072e-01
3.0475387e-01
6.3582756e-02
2.2434835e-01
1.6631445e-01
4.3207842e-01
2.8282896e-01
3.1539824e-02
4.5175815e-01
3.8496864e-01
2.0285715e-01
4.0635738e-01
3.6325577e-01
1.3644542e-01
2.6090223e-01
4.2733842e-01
9.4350420e-02
3.4130338e-01
4.4783169e-01
4.7027192e-01
0.0000000e+00
3.1919664e-01
6.2294718e-02
2.3905891e-01
4.6845871e-01
1.8160193e-01
2.9702097e-01
1.2508717e-01
4.2103827e-01
3.9931396e-01
3.0858038e-02
4.8772773e-01
4.4237214e-01
3.7728351e-01
2.1738392e-01
2.7486181e-01
4.6323127e-01
3.5503185e-01
1.6066884e-01
4.8388034e-01
9.8382406e-02
5.0587738e-01
0.0000000e+00
3.3264428e-01
6.0856909e-02
2.5280431e-01
5.0397199e-01
1.9596115e-01
3.1020635e-01
4.3470606e-01
4.5640564e-01
4.1263431e-01
1.4011936e-01
4.7764936e-01
3.9027482e-01
3.0126914e-02
5.2288014e-01
2.3093283e-01
4.9835467e-01
2.8780344e-01
3.6771274e-01
8.4204242e-02
1.7486903e-01
5.1888001e-01
3.4503347e-01
5.4064083e-01
0.0000000e+00
5.9376653e-02
2.6552054e-01
5.3871381e-01
1.2008518e-01
2.0933017e-01
4.6937320e-01
4.4729686e-01
4.9101213e-01
3.2232261e-01
4.2486686e-01
5.1213139e-01
1.5244353e-01
4.0216783e-01
2.9348819e-02
5.5718917e-01
5.3265196e-01
2.4344182e-01
3.7928504e-01
2.9966554e-01
8.7823816e-02
1.8807891e-01
5.5248821e-01
3.5630408e-01
0.0000000e+00
5.7450444e-01
4.8121339e-01
5.7760369e-02
5.0325757e-01
4.5875019e-01
2.7714726e-01
5.7221210e-01
2.2165029e-01
5.2479988e-01
4.3595210e-01
1.2377828e-01
3.3331057e-01
5.4575890e-01
4.1290393e-01
1.6314016e-01
2.8518122e-02
5.9053457e-01
5.6605369e-01
2.5485221e-01
3.8969120e-01
3.1038997e-01
8.5315898e-02
2.0022525e-01
5.8560479e-01
3.6639953e-01
5.1432729e-01
4.9186841e-01
6.0741186e-01
0.0000000e+00
5.3630257e-01
4.6900919e-01
5.6057192e-02
1.4108858e-01
5.5771208e-01
2.8762731e-01
6.0501283e-01
4.4583410e-01
2.3286474e-01
3.4311467e-01
5.7847506e-01
1.1079025e-01
4.2242825e-01
2.7642664e-02
6.2292188e-01
5.9851217e-01
1.7244019e-01
3.9887723e-01
2.6510713e-01
3.1992203e-01
8.2716361e-02
2.1127552e-01
5.2416623e-01
6.1774677e-01
5.4658335e-01
5.0128400e-01
3.7526688e-01
5.6845295e-01
4.7802064e-01
0.0000000e+00
6.3930827e-01
1.3617940e-01
5.8969384e-01
5.4269664e-02
4.5446068e-01
6.3680369e-01
2.9690662e-01
2.4291334e-01
6.1022633e-01
3.5168287e-01
1.0694441e-01
4.3068957e-01
1.9012275e-01
6.2997305e-01
2.6723996e-02
6.5427178e-01
4.0679303e-01
2.7415258e-01
3.2821068e-01
5.5558974e-01
7.9963230e-02
5.3272277e-01
5.7792777e-01
2.2112285e-01
5.0940984e-01
6.4885879e-01
5.9965521e-01
1.6583528e-01
4.8573509e-01
3.8285697e-01
1.3167407e-01
6.7014068e-01
0.0000000e+00
6.2069201e-01
4.6178350e-01
5.2395269e-02
6.6753280e-01
3.0493504e-01
2.5174224e-01
6.4096010e-01
1.0346612e-01
3.5896710e-01
4.3764064e-01
1.9981934e-01
6.6038346e-01
2.5764264e-02
6.8453211e-01
5.6327295e-01
4.1339236e-01
5.8608657e-01
5.3994942e-01
2.8193983e-01
6.0830820e-01
5.1619935e-01
7.7062950e-02
3.3520877e-01
2.2975788e-01
6.2985724e-01
1.5330859e-01
6.7888868e-01
4.9210718e-01
3.8912463e-01
6.5065503e-01
0.0000000e+00
6.9985765e-01
4.6775821e-01
1.7911460e-01
5.0467450e-02
6.9714946e-01
3.1166664e-01
2.5930792e-01
6.7062491e-01
1.2892026e-01
1.0145308e-01
4.4323817e-01
3.6492324e-01
2.0828424e-01
5.9288371e-01
5.6958842e-01
6.8969262e-01
6.1560595e-01
5.4580259e-01
2.4744485e-02
7.1365249e-01
4.1863307e-01
6.3767409e-01
5.2161008e-01
2.8842440e-01
3.4087336e-01
1.5899390e-01
6.5900886e-01
2.3712145e-01
4.9709561e-01
7.0778632e-01
3.9402893e-01
6.7953295e-01
4.7234467e-01
0.0000000e+00
7.2840977e-01
1.8739106e-01
8.3972208e-02
4.8316319e-02
7.2560430e-01
3.1705952e-01
6.9917130e-01
2.6556474e-01
1.1185451e-01
4.4744322e-01
3.6951140e-01
5.9827739e-01
6.2150562e-01
5.7449555e-01
2.1545936e-01
6.4409858e-01
5.5024302e-01
1.3965791e-01
7.1785146e-01
6.6597646e-01
2.3687582e-02
4.2247733e-01
5.2560389e-01
7.4158454e-01
2.9356521e-01
6.8706137e-01
1.6715860e-01
3.4516567e-01
5.0066334e-01
2.4316856e-01
7.3550355e-01
6.7283049e-02
7.0727754e-01
3.9753306e-01
4.7550705e-01
9.4237730e-02
1.9439845e-01
7.5574958e-01
0.0000000e+00
4.6259053e-02
7.5284994e-01
7.2655171e-01
1.2104980e-01
3.2107604e-01
6.2596864e-01
6.0223037e-01
2.7047262e-01
4.5022109e-01
6.4909095e-01
5.7795823e-01
3.7269604e-01
6.7151695e-01
5.5323559e-01
2.2131473e-01
1.4765976e-01
7.4481314e-01
6.9316816e-01
5.2814704e-01
4.2489165e-01
2.2601286e-02
7.6828158e-01
7.1396804e-01
2.9732570e-01
5.0277781e-01
1.7401445e-01
3.4805128e-01
7.2005630e-02
2.4786222e-01
7.6199412e-01
7.3384261e-01
3.9960474e-01
4.7721392e-01
1.0332364e-01
2.0008022e-01
7.8183150e-01
0.0000000e+00
6.2896079e-01
6.5261585e-01
6.0470951e-01
4.4272918e-02
7.5272036e-01
1.2895979e-01
6.7559379e-01
7.7884102e-01
5.7994461e-01
3.2368290e-01
4.5154154e-01
2.7399650e-01
6.9781548e-01
5.5474985e-01
3.7444597e-01
2.2581263e-01
1.5437947e-01
7.1920377e-01
7.7053267e-01
5.2921009e-01
4.2584693e-01
2.1473236e-02
7.9369938e-01
6.1743319e-02
7.3968399e-01
5.0341088e-01
1.7953983e-01
2.9967386e-01
8.6524881e-02
3.4950021e-01
2.5116855e-01
7.8721392e-01
7.5918376e-01
1.1113635e-01
4.0021613e-01
4.7743836e-01
6.5464222e-01
6.3045233e-01
6.7817461e-01
6.0568643e-01
2.0440049e-01
8.0661213e-01
0.0000000e+00
7.0096987e-01
5.8042753e-01
1.3556471e-01
4.1805796e-02
7.7763361e-01
8.0353427e-01
7.2295010e-01
3.2485139e-01
4.5137891e-01
2.7610558e-01
5.5475974e-01
3.7473461e-01
7.4403995e-01
1.5976614e-01
2.2892016e-01
5.2876824e-01
7.9496711e-01
7.0691325e-02
4.2531881e-01
7.6416630e-01
2.0291509e-02
8.1779546e-01
5.0253892e-01
9.4250225e-02
1.8370025e-01
3.0058214e-01
3.4948713e-01
2.5305796e-01
8.1112075e-01
6.5514374e-01
7.8325880e-01
6.7923188e-01
6.3041812e-01
1.1763901e-01
7.0260245e-01
4.7615808e-01
3.9934403e-01
6.0513717e-01
7.2517687e-01
2.0732754e-01
5.7938421e-01
0.0000000e+00
8.3005023e-01
1.4082946e-01
8.0125004e-01
7.4687910e-01
3.5949137e-02
8.2688844e-01
5.5324382e-01
4.4971213e-01
3.2455733e-01
2.7677363e-01
3.7353998e-01
7.6763523e-01
5.5974875e-02
1.6378398e-01
5.2680147e-01
2.3060881e-01
8.1807572e-01
7.8370742e-02
4.2328742e-01
7.8737414e-01
1.9112227e-02
8.4052974e-01
5.0014317e-01
1.0066758e-01
1.8646467e-01
6.7874253e-01
6.5409851e-01
3.0002764e-01
7.0268881e-01
6.2883770e-01
3.4799123e-01
8.0602747e-01
2.5350529e-01
8.3367491e-01
7.2585845e-01
1.2279730e-01
6.0304254e-01
4.7335550e-01
3.9696985e-01
7.4817449e-01
5.7679683e-01
4.1495807e-02
2.0883390e-01
1.4472122e-01
0.0000000e+00
8.5210675e-01
7.6956242e-01
8.2353008e-01
5.5018550e-01
8.4886473e-01
4.4652489e-01
3.2278121e-01
2.7597883e-01
6.3537538e-02
7.8995025e-01
3.7084475e-01
5.2329427e-01
1.6640300e-01
8.4710918e-02
2.3085456e-01
8.3981997e-01
8.0926883e-01
4.1973770e-01
6.7668808e-01
1.0573377e-01
4.9620947e-01
7.0120937e-01
6.5148956e-01
8.6186439e-01
7.2497380e-01
6.2569523e-01
1.8780667e-01
2.9799202e-01
7.4790388e-01
3.4499645e-01
5.9938794e-01
2.3907173e-02
8.2745194e-01
1.2657849e-01
8.5483861e-01
2.5248995e-01
4.6901768e-01
7.6992434e-01
5.7265204e-01
3.9307979e-01
2.0889670e-01
7.9096234e-01
1.4721125e-01
4.9839061e-02
5.4557270e-01
8.7274510e-01
0.0000000e+00
8.4443671e-01
4.4180554e-01
6.9831796e-02
8.6942649e-01
3.1950819e-01
8.1094784e-01
2.7370411e-01
5.1823598e-01
3.6663634e-01
1.6759787e-01
8.9700341e-02
2.2963803e-01
8.6016363e-01
6.9814909e-01
6.7305493e-01
7.2250676e-01
8.2981384e-01
6.4730448e-01
1.0941917e-01
4.1465935e-01
7.4604976e-01
4.9072838e-01
6.2097961e-01
1.6632607e-02
8.8176382e-01
1.8770450e-01
7.6870203e-01
5.9416378e-01
2.9446170e-01
1.2895513e-01
8.4749639e-01
3.4049147e-01
7.9039007e-01
8.7457669e-01
2.4999613e-01
4.6313661e-01
5.6694150e-01
3.8766482e-01
3.3574946e-02
5.6098923e-02
8.1104302e-01
2.0749770e-01
1.4827549e-01
5.3939837e-01
8.6393499e-01
0.0000000e+00
8.9193082e-01
7.4754685e-02
4.3554738e-01
8.8853937e-01
8.3059293e-01
3.1472817e-01
2.6993713e-01
5.1162076e-01
9.3303040e-02
1.6734809e-01
6.9349796e-01
3.6090699e-01
7.1844584e-01
6.6783434e-01
7.4259925e-01
6.4153582e-01
2.2694452e-01
8.7907267e-01
8.4897488e-01
7.6588148e-01
1.1169697e-01
6.1468476e-01
4.0804687e-01
4.8369536e-01
7.8821814e-01
1.5337446e-02
9.0019500e-01
5.8736497e-01
1.8614116e-01
1.2990433e-01
4.5037713e-02
2.8942785e-01
8.6612737e-01
8.0953765e-01
3.3446977e-01
5.5966151e-01
8.9285618e-01
2.4601261e-01
4.5570904e-01
6.0935289e-02
3.8072073e-01
8.2977110e-01
1.4789462e-01
5.3166020e-01
2.0462345e-01
7.8284800e-02
8.8199240e-01
9.0963197e-01
0.0000000e+00
2.9394170e-02
4.2774847e-01
8.4885275e-01
7.1278435e-01
9.0617162e-01
6.8725049e-01
7.3754442e-01
6.6102225e-01
9.5495559e-02
5.0344753e-01
3.0843586e-01
2.6467025e-01
7.6145327e-01
1.6563784e-01
6.3418084e-01
3.5365370e-01
7.8443587e-01
2.2276413e-01
6.0680920e-01
8.9651567e-01
8.6672002e-01
1.1254591e-01
4.7511062e-01
3.9989969e-01
8.0641967e-01
5.7899159e-01
1.4030375e-02
9.1712713e-01
1.8310441e-01
1.2940812e-01
8.2733506e-01
4.4842608e-02
8.8331389e-01
2.8288639e-01
5.5081332e-01
3.2692957e-01
9.0964663e-01
4.4673657e-01
2.4053305e-01
6.4421929e-02
8.4711528e-01
3.7224808e-01
5.2236050e-01
1.4605412e-01
8.0406718e-02
2.0026524e-01
7.0552057e-01
8.9857888e-01
7.3088211e-01
6.7940640e-01
0.0000000e+00
9.2581922e-01
7.5541294e-01
6.5261954e-01
8.6569685e-01
4.1841188e-01
2.6683504e-02
9.6258290e-02
9.2229378e-01
7.7903730e-01
4.9371985e-01
6.2524182e-01
3.0063075e-01
2.5790063e-01
1.6245614e-01
8.0168194e-01
3.4487829e-01
5.9735644e-01
2.1709174e-01
1.1194926e-01
8.8301963e-01
9.1246343e-01
8.2327628e-01
4.6497911e-01
5.6904823e-01
3.9022207e-01
3.6923695e-02
1.2693808e-02
9.3253207e-01
1.7858681e-01
5.1760718e-02
8.4375262e-01
1.2745322e-01
5.4040301e-01
8.9902717e-01
2.7483803e-01
6.6481784e-02
3.1787392e-01
4.3622595e-01
9.2491990e-01
2.3355590e-01
8.6304665e-01
3.6225224e-01
5.1150650e-01
7.2261405e-01
6.9665754e-01
8.1095740e-02
1.4274426e-01
7.4776089e-01
6.6997004e-01
1.9441925e-01
7.7202159e-01
6.4263201e-01
9.1366667e-01
0.0000000e+00
9.4046545e-01
8.8109708e-01
7.9532206e-01
4.0754586e-01
9.5575102e-02
6.1472565e-01
4.8244557e-01
9.3687904e-01
8.1759095e-01
2.9131714e-01
1.5779682e-01
2.4963032e-01
5.8633471e-01
2.4011653e-02
3.3458728e-01
1.0989495e-01
8.9784652e-01
2.0992707e-01
8.3875972e-01
9.2688942e-01
4.0328149e-02
5.5754423e-01
4.5331061e-01
3.7902290e-01
5.3765059e-02
8.5876298e-01
1.7258577e-01
1.1304332e-02
9.4638413e-01
1.2403116e-01
5.2844262e-01
9.1324103e-01
6.7108035e-02
2.6528832e-01
3.0731067e-01
4.2418987e-01
7.1274674e-01
9.3865067e-01
7.3850226e-01
6.8620318e-01
2.2508441e-01
8.7753856e-01
7.6339251e-01
6.5895087e-01
8.0338866e-02
4.9910924e-01
3.5074300e-01
7.8734267e-01
1.3796011e-01
6.3107026e-01
1.8708645e-01
9.2723066e-01
8.1028038e-01
6.0264421e-01
8.9502788e-01
9.3435451e-02
9.5354640e-01
0.0000000e+00
3.9516428e-01
1.9304814e-02
4.6963519e-01
8.3213639e-01
9.4990301e-01
5.7375711e-01
1.5165852e-01
2.8050402e-01
3.0205552e-02
2.3986605e-01
3.2279214e-01
1.0637579e-01
8.5284430e-01
4.2301532e-02
9.1117597e-01
2.0127466e-01
5.4449117e-01
9.3976957e-01
4.4012085e-01
5.4341212e-02
3.6631435e-01
8.7234098e-01
1.6510354e-01
1.1913828e-01
5.1495868e-01
9.9551314e-03
9.5866030e-01
6.6289879e-02
7.2764724e-01
7.0129168e-01
9.2593175e-01
7.5315887e-01
6.7417020e-01
7.7775097e-01
2.5424746e-01
4.1065013e-01
6.4636409e-01
2.9525253e-01
8.9056683e-01
9.5081598e-01
2.1512668e-01
7.8127161e-02
8.0135053e-01
4.8517072e-01
6.1794847e-01
3.3773488e-01
1.3170159e-01
8.2388729e-01
1.7827268e-01
2.0897778e-02
5.8901507e-01
9.3924820e-01
9.0746582e-01
8.9833476e-02
0.0000000e+00
9.6504027e-01
8.4529394e-01
3.8128623e-01
4.5530528e-01
5.5964392e-01
3.2120395e-02
9.6134412e-01
1.4404477e-01
2.6820505e-01
2.2861940e-01
4.2837206e-02
8.6550641e-01
1.0138939e-01
3.0951008e-01
9.2298567e-01
5.2987725e-01
1.9114393e-01
9.5108235e-01
5.3473726e-02
4.2543274e-01
3.5210273e-01
8.8446409e-01
7.1521050e-01
7.4133414e-01
6.8826473e-01
7.6655930e-01
1.1277570e-01
6.4018711e-02
1.5614720e-01
6.6057497e-01
9.6934003e-01
7.9081225e-01
9.3707824e-01
6.3223720e-01
9.0210980e-01
1.1330128e-02
3.9565316e-01
2.4173029e-01
8.1402189e-01
2.8171656e-01
6.0326946e-01
7.4455783e-02
9.6139556e-01
4.6971685e-01
2.0369567e-01
4.9651778e-01
8.3612001e-01
1.2397341e-01
3.2325771e-01
5.7388139e-01
1.6798864e-01
2.3297818e-02
9.4969928e-01
8.4767915e-02
9.1839027e-01
8.5704160e-01
3.2639235e-02
4.3947810e-01
0.0000000e+00
9.7492790e-01
9.7118318e-01
4.1932844e-02
3.6421916e-01
1.3496387e-01
5.4184395e-01
8.7672496e-01
2.5443789e-01
9.4938070e-02
2.1590672e-01
5.1376981e-01
9.3325603e-01
2.9475868e-01
5.1155001e-02
9.6080893e-01
1.7954920e-01
7.2793663e-01
7.0121181e-01
7.5378460e-01
6.7368728e-01
8.9511192e-01
7.7868116e-01
3.3644864e-01
6.4542252e-01
6.0290497e-02
1.0494936e-01
8.0255455e-01
4.0973800e-01
1.4572872e-01
7.1581686e-03
9.7840565e-01
9.4666183e-01
8.2533556e-01
5.8701360e-01
9.1214812e-01
6.9324531e-02
2.2775616e-01
1.5019590e-02
2.6672602e-01
9.7037172e-01
1.9080929e-01
8.4695816e-01
6.1261147e-01
1.1478513e-01
2.3778643e-02
1.5624990e-01
7.8242257e-02
9.2778289e-01
8.6735976e-01
9.5856643e-01
3.1705197e-02
4.6309328e-01
3.0699921e-01
0.0000000e+00
9.8319286e-01
4.8924029e-01
3.9576937e-02
9.7940379e-01
8.8648111e-01
1.2442897e-01
3.4609762e-01
5.1763856e-01
4.2940247e-01
8.7028943e-02
2.3922077e-01
7.1298939e-01
7.3944890e-01
2.0174964e-01
6.8567520e-01
4.7381412e-02
9.4196981e-01
7.6497769e-01
6.5760523e-01
9.6893311e-01
7.8950429e-01
1.6650969e-01
6.2873530e-01
9.0426677e-01
3.6825994e-01
5.5248070e-01
8.1295836e-01
5.5105977e-02
2.7759084e-01
9.5669977e-02
3.9772552e-01
1.3386481e-01
8.3527267e-01
9.8584211e-01
9.5466650e-01
7.7173715e-03
9.2066503e-01
6.2737972e-02
1.5867876e-02
5.7989138e-01
2.1235245e-01
8.5638362e-01
9.7772950e-01
4.6194556e-01
4.4701195e-01
2.2823850e-02
1.7649046e-01
4.9125105e-01
4.1668808e-01
1.0415101e-01
4.7737476e-01
4.2964292e-01
3.1867233e-01
2.9321069e-02
8.7623113e-01
7.0264772e-02
1.4307684e-01
9.3562812e-01
5.0492722e-01
3.9938390e-01
9.6583486e-01
5.1968002e-01
2.4855036e-01
3.5768121e-02
3.7053040e-01
9.8982143e-01
0.0000000e+00
6.0164350e-01
7.2358000e-01
3.8607678e-01
6.9651812e-01
3.4136412e-01
7.4972677e-01
8.9475864e-01
6.6861045e-01
5.3338164e-01
9.8599249e-01
1.1245793e-01
7.7489460e-01
7.7673890e-02
3.5499209e-01
4.2154919e-02
2.2261885e-01
1.8617363e-01
9.4911253e-01
5.4450679e-01
7.9901087e-01
4.4800946e-01
4.6246052e-01
4.3338934e-01
4.7671995e-01
4.1862205e-01
5.6019694e-01
9.7544128e-01
1.5204963e-01
4.9076465e-01
4.0372875e-01
9.1191334e-01
8.2200634e-01
2.8510103e-01
4.8470907e-02
5.0457096e-01
3.8872972e-01
8.4953032e-02
8.4381652e-01
5.7301581e-01
3.2385984e-01
5.1811510e-01
3.7364426e-01
1.2057690e-01
9.3612876e-03
6.3040209e-01
4.3249908e-03
9.6107894e-01
9.9163723e-01
1.5322025e-02
9.2764634e-01
5.4705571e-02
5.3137279e-01
3.5849074e-01
8.6438054e-01
2.0419821e-02
3.0931249e-01
1.9553356e-01
9.8345667e-01
5.4431981e-01
3.4328637e-01
5.8551162e-01
1.6076809e-01
9.2090108e-02
2.5485814e-02
2.5665805e-01
8.8364089e-01
6.0848534e-02
2.9279128e-01
5.9752488e-01
5.5693185e-01
3.2804713e-01
9.4191283e-01
1.2849444e-01
9.7149247e-01
7.0622045e-01
7.3295778e-01
3.0509673e-02
6.7855006e-01
7.5875235e-01
9.9480253e-01
0.0000000e+00
7.8352022e-01
9.0154368e-01
5.6918472e-01
3.1278789e-01
2.7856037e-01
9.9093884e-01
3.5482567e-02
9.9073291e-02
6.6889584e-02
8.0718541e-01
6.5147537e-01
6.0850686e-01
2.0310533e-01
9.5467228e-01
1.6921641e-01
5.8105457e-01
2.9752213e-01
8.2968324e-01
9.1803885e-01
9.8032272e-01
1.3619773e-01
2.6178598e-01
4.0395983e-02
6.1778623e-01
2.2538406e-01
9.2056626e-03
8.5095268e-01
7.2818696e-02
5.9251755e-01
2.8226212e-01
3.9388952e-03
1.2899274e-02
1.0589100e-01
9.6588850e-01
9.9578291e-01
4.5241628e-02
9.3308038e-01
1.6564764e-02
8.7093544e-01
6.3102978e-01
2.4632879e-01
6.0355061e-01
2.6701871e-01
1.7737180e-01
9.8754382e-01
2.0203957e-02
1.4367661e-01
7.8626081e-02
8.8957661e-01
7.1469969e-01
5.0011400e-02
7.4110198e-01
6.4119393e-01
9.4662648e-01
7.6651812e-01
2.3810044e-02
1.1253187e-01
6.1413103e-01
2.5180134e-01
9.7552985e-01
6.5639251e-01
2.2937097e-01
7.9084140e-01
9.0682489e-01
1.9424483e-01
0.0000000e+00
9.9812788e-01
8.1401348e-01
2.7376387e-02
6.8285710e-01
5.4697368e-02
8.4302187e-02
9.9423873e-01
6.2423664e-01
2.3661815e-01
9.5863968e-01
8.3597553e-01
2.1666151e-01
1.5276965e-01
9.2263305e-01
3.0896770e-02
6.7885770e-03
9.8356932e-01
4.0964102e-03
1.1898456e-01
8.5666889e-01
9.0302983e-03
5.9291784e-02
6.3384622e-01
2.2147585e-01
6.6000146e-01
2.0038366e-01
8.9837700e-02
1.1266570e-02
3.4365222e-02
8.7603730e-01
9.6908706e-01
9.3695807e-01
7.2355753e-01
1.4232448e-03
9.9828029e-01
1.3485825e-02
7.4591911e-01
1.6639148e-01
9.8998457e-01
6.4293921e-01
2.0637980e-01
8.9402837e-01
6.3787140e-02
7.7301383e-01
1.8514490e-01
3.7775926e-02
6.6617525e-01
1.2589881e-01
1.5682755e-02
9.4976121e-01
7.9684234e-01
9.5222957e-02
9.7794020e-01
6.9825679e-01
9.1059351e-01
8.1948191e-01
1.7853266e-02
6.5149599e-01
1.9133401e-01
9.9979192e-01
0.0000000e+00
1.2377197e-03
4.1123226e-02
6.8176255e-02
9.9591190e-01
2.0699203e-03
8.4087229e-01
6.7660737e-01
9.6100819e-01
2.8968600e-03
1.6833059e-01
9.2568839e-01
1.9993590e-02
8.6095554e-01
9.8517579e-01
3.7205927e-03
1.0044219e-01
6.5949792e-01
1.7634115e-01
4.4401623e-02
4.5376262e-03
1.5495051e-01
8.7967771e-01
7.2452575e-02
2.2100108e-02
6.8142486e-01
7.1345282e-01
1.3331565e-01
9.3927306e-01
9.7066921e-01
2.2027678e-05
9.9916148e-01
5.3465343e-03
7.5376087e-01
7.7820963e-01
6.6692746e-01
1.6140263e-01
8.9698881e-01
9.9077672e-01
4.7605865e-02
1.0547411e-01
2.4169283e-02
6.1460230e-03
8.0150861e-01
9.5131189e-01
6.9077903e-01
-9.1483491e-04
7.6612584e-02
9.7871917e-01
8.2358104e-01
1.3833967e-01
9.1284329e-01
6.9347597e-03
-1.8275020e-03
6.7376822e-01
1.4651865e-01
0.0000000e+00
9.9979192e-01
8.4436548e-01
2.6197677e-02
5.0731074e-02
9.9610776e-01
-2.4152237e-03
9.6177375e-01
9.2719978e-01
7.7114110e-03
1.2502667e-01
6.9462067e-01
-3.0111913e-03
8.6380589e-01
9.8513770e-01
8.3645217e-02
1.0326836e-01
-3.6052768e-03
2.8181959e-02
6.8000489e-01
1.3168824e-01
8.8185084e-01
8.4746601e-03
5.3772528e-02
9.4002140e-01
7.5814599e-01
9.7063220e-01
-4.1944976e-03
9.9829984e-01
7.8209424e-01
7.0238972e-01
8.9845324e-01
-2.0708158e-03
1.0857290e-01
9.9069393e-01
8.0483401e-01
-4.7774301e-03
3.0119017e-02
9.2232022e-03
6.8562359e-01
1.1690935e-01
7.2518671e-01
9.5127583e-01
8.2630515e-01
-5.1013706e-03
9.7786510e-01
9.1357058e-01
-7.1180700e-03
-5.3530005e-03
5.7090763e-02
8.4645009e-01
9.5336936e-02
-9.1399839e-03