# vtk DataFile Version 4.0
vtk output
ASCII
DATASET UNSTRUCTURED_GRID
POINTS 1006 float
0.0000000e+00 1.0000000e+00 0.0000000e+00 
3.1250000e-02 1.0000000e+00 0.0000000e+00 
0.0000000e+00 9.6875000e-01 0.0000000e+00 
3.4490656e-02 9.6843702e-01 0.0000000e+00 
6.2500000e-02 1.0000000e+00 0.0000000e+00 
0.0000000e+00 9.3750000e-01 0.0000000e+00 
6.4319454e-02 9.6562535e-01 0.0000000e+00 
4.5027003e-02 9.3856418e-01 0.0000000e+00 
9.3750000e-02 1.0000000e+00 0.0000000e+00 
0.0000000e+00 9.0625000e-01 0.0000000e+00 
2.7048061e-02 9.0908039e-01 0.0000000e+00 
7.9874411e-02 9.3881035e-01 0.0000000e+00 
9.5319390e-02 9.6568888e-01 0.0000000e+00 
6.4429432e-02 9.1193187e-01 0.0000000e+00 
4.8984457e-02 8.8505340e-01 0.0000000e+00 
1.2500000e-01 1.0000000e+00 0.0000000e+00 
0.0000000e+00 8.7500000e-01 0.0000000e+00 
1.1087435e-01 9.3887389e-01 0.0000000e+00 
9.5429368e-02 9.1199541e-01 0.0000000e+00 
1.2631932e-01 9.6575236e-01 0.0000000e+00 
7.9984397e-02 8.8511693e-01 0.0000000e+00 
3.2523662e-02 8.5868037e-01 0.0000000e+00 
1.2642930e-01 9.1205889e-01 0.0000000e+00 
1.4187428e-01 9.3893737e-01 0.0000000e+00 
6.4539418e-02 8.5823846e-01 0.0000000e+00 
1.5625000e-01 1.0000000e+00 0.0000000e+00 
0.0000000e+00 8.4375000e-01 0.0000000e+00 
1.1098433e-01 8.8518041e-01 0.0000000e+00 
1.5731926e-01 9.6581584e-01 0.0000000e+00 
9.5539354e-02 8.5830194e-01 0.0000000e+00 
4.9094442e-02 8.3135998e-01 0.0000000e+00 
1.5742923e-01 9.1212237e-01 0.0000000e+00 
1.4198427e-01 8.8524389e-01 0.0000000e+00 
1.7287421e-01 9.3900084e-01 0.0000000e+00 
8.0094375e-02 8.3142346e-01 0.0000000e+00 
1.8750000e-01 1.0000000e+00 0.0000000e+00 
0.0000000e+00 8.1250000e-01 0.0000000e+00 
1.2653929e-01 8.5836542e-01 0.0000000e+00 
1.8831919e-01 9.6587938e-01 0.0000000e+00 
2.7158044e-02 8.0851191e-01 0.0000000e+00 
1.1109431e-01 8.3148694e-01 0.0000000e+00 
6.4649403e-02 8.0454499e-01 0.0000000e+00 
1.7298420e-01 8.8530743e-01 0.0000000e+00 
1.8842918e-01 9.1218591e-01 0.0000000e+00 
1.5753922e-01 8.5842896e-01 0.0000000e+00 
2.0387416e-01 9.3906438e-01 0.0000000e+00 
9.5649332e-02 8.0460846e-01 0.0000000e+00 
2.1875000e-01 1.0000000e+00 0.0000000e+00 
0.0000000e+00 7.8125000e-01 0.0000000e+00 
1.4209424e-01 8.3155048e-01 0.0000000e+00 
2.1931912e-01 9.6594286e-01 0.0000000e+00 
4.3997370e-02 7.7888393e-01 0.0000000e+00 
1.2664928e-01 8.0467194e-01 0.0000000e+00 
2.0398413e-01 8.8537091e-01 0.0000000e+00 
1.8853916e-01 8.5849243e-01 0.0000000e+00 
8.0204360e-02 7.7772999e-01 0.0000000e+00 
2.1942911e-01 9.1224939e-01 0.0000000e+00 
1.7309418e-01 8.3161396e-01 0.0000000e+00 
2.3487408e-01 9.3912786e-01 0.0000000e+00 
1.1120430e-01 7.7779347e-01 0.0000000e+00 
2.5000000e-01 1.0000000e+00 0.0000000e+00 
0.0000000e+00 7.5000000e-01 0.0000000e+00 
1.5764920e-01 8.0473548e-01 0.0000000e+00 
2.7213035e-02 7.5041515e-01 0.0000000e+00 
2.5031906e-01 9.6600634e-01 0.0000000e+00 
6.4759381e-02 7.5085151e-01 0.0000000e+00 
2.1953909e-01 8.5855591e-01 0.0000000e+00 
2.3498407e-01 8.8543439e-01 0.0000000e+00 
1.4220423e-01 7.7785701e-01 0.0000000e+00 
2.0409411e-01 8.3167744e-01 0.0000000e+00 
2.5042903e-01 9.1231287e-01 0.0000000e+00 
9.5759317e-02 7.5091499e-01 0.0000000e+00 
1.8864913e-01 8.0479896e-01 0.0000000e+00 
2.6587403e-01 9.3919134e-01 0.0000000e+00 
1.2675925e-01 7.5097853e-01 0.0000000e+00 
4.9314406e-02 7.2397304e-01 0.0000000e+00 
2.8125000e-01 1.0000000e+00 0.0000000e+00 
0.0000000e+00 7.1875000e-01 0.0000000e+00 
1.7320417e-01 7.7792048e-01 0.0000000e+00 
2.8131899e-01 9.6606988e-01 0.0000000e+00 
8.0314338e-02 7.2403651e-01 0.0000000e+00 
2.5053903e-01 8.5861945e-01 0.0000000e+00 
2.3509406e-01 8.3174092e-01 0.0000000e+00 
2.6598400e-01 8.8549793e-01 0.0000000e+00 
2.1964908e-01 8.0486244e-01 0.0000000e+00 
1.5775919e-01 7.5104201e-01 0.0000000e+00 
2.8142899e-01 9.1237640e-01 0.0000000e+00 
1.1131427e-01 7.2410005e-01 0.0000000e+00 
2.0420410e-01 7.7798396e-01 0.0000000e+00 
2.9687396e-01 9.3925488e-01 0.0000000e+00 
3.0338770e-02 6.9464612e-01 0.0000000e+00 
6.4869367e-02 6.9715804e-01 0.0000000e+00 
1.4231421e-01 7.2416353e-01 0.0000000e+00 
1.8875912e-01 7.5110549e-01 0.0000000e+00 
3.1250000e-01 1.0000000e+00 0.0000000e+00 
0.0000000e+00 6.8750000e-01 0.0000000e+00 
3.1231892e-01 9.6613336e-01 0.0000000e+00 
2.6609400e-01 8.3180445e-01 0.0000000e+00 
2.8153896e-01 8.5868293e-01 0.0000000e+00 
9.5869303e-02 6.9722152e-01 0.0000000e+00 
2.5064901e-01 8.0492598e-01 0.0000000e+00 
2.9698393e-01 8.8556141e-01 0.0000000e+00 
2.3520404e-01 7.7804750e-01 0.0000000e+00 
3.1242892e-01 9.1243988e-01 0.0000000e+00 
1.7331415e-01 7.2422701e-01 0.0000000e+00 
1.2686923e-01 6.9728506e-01 0.0000000e+00 
1.8424455e-02 6.7021608e-01 0.0000000e+00 
2.1975906e-01 7.5116903e-01 0.0000000e+00 
4.9424391e-02 6.7027956e-01 0.0000000e+00 
3.2787389e-01 9.3931836e-01 0.0000000e+00 
8.0424324e-02 6.7034304e-01 0.0000000e+00 
1.5786918e-01 6.9734854e-01 0.0000000e+00 
2.9709393e-01 8.3186793e-01 0.0000000e+00 
2.8164893e-01 8.0498946e-01 0.0000000e+00 
3.1253889e-01 8.5874641e-01 0.0000000e+00 
2.0431408e-01 7.2429055e-01 0.0000000e+00 
3.4375000e-01 1.0000000e+00 0.0000000e+00 
0.0000000e+00 6.5625000e-01 0.0000000e+00 
3.4331888e-01 9.6619684e-01 0.0000000e+00 
2.6620397e-01 7.7811098e-01 0.0000000e+00 
3.2798389e-01 8.8562489e-01 0.0000000e+00 
1.1142426e-01 6.7040658e-01 0.0000000e+00 
2.5075901e-01 7.5123250e-01 0.0000000e+00 
3.4342885e-01 9.1250336e-01 0.0000000e+00 
1.8886910e-01 6.9741201e-01 0.0000000e+00 
1.4242420e-01 6.7047006e-01 0.0000000e+00 
2.5429877e-02 6.4183825e-01 0.0000000e+00 
2.3531401e-01 7.2435403e-01 0.0000000e+00 
6.1557736e-02 6.4254922e-01 0.0000000e+00 
3.5887381e-01 9.3938184e-01 0.0000000e+00 
3.1264889e-01 8.0505294e-01 0.0000000e+00 
3.2809386e-01 8.3193141e-01 0.0000000e+00 
9.5979281e-02 6.4352810e-01 0.0000000e+00 
2.9720390e-01 7.7817446e-01 0.0000000e+00 
3.4353882e-01 8.5880995e-01 0.0000000e+00 
1.7342412e-01 6.7053354e-01 0.0000000e+00 
2.1986905e-01 6.9747555e-01 0.0000000e+00 
3.7500000e-01 1.0000000e+00 0.0000000e+00 
0.0000000e+00 6.2500000e-01 0.0000000e+00 
2.8175893e-01 7.5129598e-01 0.0000000e+00 
3.7431881e-01 9.6626037e-01 0.0000000e+00 
3.5898381e-01 8.8568842e-01 0.0000000e+00 
1.2697922e-01 6.4359158e-01 0.0000000e+00 
2.6631394e-01 7.2441751e-01 0.0000000e+00 
3.7442878e-01 9.1256690e-01 0.0000000e+00 
2.0442407e-01 6.7059708e-01 0.0000000e+00 
3.7554234e-02 6.1265695e-01 0.0000000e+00 
1.5797916e-01 6.4365506e-01 0.0000000e+00 
8.0534309e-02 6.1664963e-01 0.0000000e+00 
2.5086898e-01 6.9753903e-01 0.0000000e+00 
3.8987377e-01 9.3944538e-01 0.0000000e+00 
3.4364882e-01 8.0511647e-01 0.0000000e+00 
3.2820383e-01 7.7823800e-01 0.0000000e+00 
3.5909379e-01 8.3199495e-01 0.0000000e+00 
1.1153425e-01 6.1671311e-01 0.0000000e+00 
3.1275886e-01 7.5135952e-01 0.0000000e+00 
3.7453878e-01 8.5887343e-01 0.0000000e+00 
1.8897909e-01 6.4371860e-01 0.0000000e+00 
2.3542400e-01 6.7066056e-01 0.0000000e+00 
2.9731390e-01 7.2448105e-01 0.0000000e+00 
4.0625000e-01 1.0000000e+00 0.0000000e+00 
0.0000000e+00 5.9375000e-01 0.0000000e+00 
3.8998374e-01 8.8575190e-01 0.0000000e+00 
4.0531874e-01 9.6632385e-01 0.0000000e+00 
1.4253418e-01 6.1677659e-01 0.0000000e+00 
4.0542871e-01 9.1263038e-01 0.0000000e+00 
6.1885539e-02 5.8718580e-01 0.0000000e+00 
2.1997902e-01 6.4378208e-01 0.0000000e+00 
1.7353411e-01 6.1684012e-01 0.0000000e+00 
9.6089266e-02 5.8983463e-01 0.0000000e+00 
3.7464875e-01 8.0517995e-01 0.0000000e+00 
2.6846787e-02 5.7812500e-01 0.0000000e+00 
2.9462957e-01 6.9653040e-01 0.0000000e+00 
3.9009371e-01 8.3205843e-01 0.0000000e+00 
3.6183378e-01 7.7677172e-01 0.0000000e+00 
4.2087370e-01 9.3950886e-01 0.0000000e+00 
1.2708920e-01 5.8989811e-01 0.0000000e+00 
4.0553871e-01 8.5893691e-01 0.0000000e+00 
3.2673544e-01 7.1531653e-01 0.0000000e+00 
3.4981033e-01 7.4265611e-01 0.0000000e+00 
2.0453405e-01 6.1690360e-01 0.0000000e+00 
2.7944988e-01 6.6655171e-01 0.0000000e+00 
4.2098367e-01 8.8581538e-01 0.0000000e+00 
4.3750000e-01 1.0000000e+00 0.0000000e+00 
0.0000000e+00 5.6250000e-01 0.0000000e+00 
4.3631867e-01 9.6638733e-01 0.0000000e+00 
1.5808913e-01 5.8996165e-01 0.0000000e+00 
5.3755064e-02 5.6007177e-01 0.0000000e+00 
8.0644287e-02 5.6295615e-01 0.0000000e+00 
4.3642867e-01 9.1269386e-01 0.0000000e+00 
2.6065430e-01 6.3818634e-01 0.0000000e+00 
3.9020371e-01 7.7836496e-01 0.0000000e+00 
4.0564868e-01 8.0524343e-01 0.0000000e+00 
1.1164422e-01 5.6301963e-01 0.0000000e+00 
1.8908907e-01 5.9002513e-01 0.0000000e+00 
4.2109367e-01 8.3212191e-01 0.0000000e+00 
4.5187363e-01 9.3957233e-01 0.0000000e+00 
3.3157608e-01 6.8475223e-01 0.0000000e+00 
3.8448721e-01 7.5107491e-01 0.0000000e+00 
3.1014878e-01 6.6265458e-01 0.0000000e+00 
4.3653864e-01 8.5900044e-01 0.0000000e+00 
1.4264417e-01 5.6308311e-01 0.0000000e+00 
3.5555655e-01 7.0404923e-01 0.0000000e+00 
2.4548693e-01 6.0772616e-01 0.0000000e+00 
2.9159939e-01 6.3809127e-01 0.0000000e+00 
3.4199379e-02 5.3601414e-01 0.0000000e+00 
4.5198360e-01 8.8587892e-01 0.0000000e+00 
6.5199316e-02 5.3607768e-01 0.0000000e+00 
4.6731859e-01 9.6645087e-01 0.0000000e+00 
4.6875000e-01 1.0000000e+00 0.0000000e+00 
0.0000000e+00 5.3125000e-01 0.0000000e+00 
1.7364410e-01 5.6314665e-01 0.0000000e+00 
3.8172662e-01 7.2025305e-01 0.0000000e+00 
9.6199252e-02 5.3614116e-01 0.0000000e+00 
4.6742859e-01 9.1275740e-01 0.0000000e+00 
2.7620918e-01 6.1143458e-01 0.0000000e+00 
2.2723593e-01 5.7954717e-01 0.0000000e+00 
4.3664861e-01 8.0530697e-01 0.0000000e+00 
4.1621691e-01 7.6336706e-01 0.0000000e+00 
1.2719919e-01 5.3620464e-01 0.0000000e+00 
4.5209360e-01 8.3218545e-01 0.0000000e+00 
2.0464402e-01 5.6321013e-01 0.0000000e+00 
4.8287356e-01 9.3963587e-01 0.0000000e+00 
4.6753857e-01 8.5906392e-01 0.0000000e+00 
4.0968958e-01 7.3311806e-01 0.0000000e+00 
1.5819912e-01 5.3626817e-01 0.0000000e+00 
2.6421139e-01 5.8308870e-01 0.0000000e+00 
4.6628606e-02 5.0767654e-01 0.0000000e+00 
4.8298356e-01 8.8594240e-01 0.0000000e+00 
8.0754273e-02 5.0926268e-01 0.0000000e+00 
[...]
POINT_DATA 1006
FIELD FieldData 1
TEMPERATURE 1 1006  float
-0.0000000e+00
-9.8017141e-02
0.0000000e+00
-8.7600075e-02
-1.9509032e-01
0.0000000e+00
-1.6042475e-01
-9.3021795e-02
-2.9028466e-01
0.0000000e+00
-4.2896714e-02
-1.6384238e-01
-2.3660001e-01
-1.0455453e-01
-6.2605627e-02
-3.8268343e-01
0.0000000e+00
-2.2561605e-01
-1.5388991e-01
-3.1050122e-01
-1.0191868e-01
-3.2456387e-02
-2.0232357e-01
-2.8562102e-01
-6.3804485e-02
-4.7139674e-01
0.0000000e+00
-1.4079303e-01
-3.8160819e-01
-9.4386905e-02
-3.7923280e-02
-2.4961384e-01
-1.7930451e-01
-3.4342134e-01
-6.1856154e-02
-5.5557024e-01
0.0000000e+00
-1.2523574e-01
-4.4939512e-01
-1.7122731e-02
-8.6597852e-02
-3.9747644e-02
-2.1754462e-01
-2.9556009e-01
-1.5667504e-01
-3.9864823e-01
-5.9876394e-02
-6.3439327e-01
0.0000000e+00
-1.1260595e-01
-5.1364601e-01
-2.2245020e-02
-8.1713289e-02
-2.5561783e-01
-1.8911752e-01
-4.1456245e-02
-3.4003410e-01
-1.4055911e-01
-4.5160016e-01
-6.0076997e-02
-7.0710677e-01
0.0000000e+00
-1.0620619e-01
-1.1556094e-02
-5.7191646e-01
-2.8508916e-02
-2.2296514e-01
-2.9361591e-01
-8.1801467e-02
-1.7120817e-01
-3.8324162e-01
-4.4568073e-02
-1.3445048e-01
-4.9962786e-01
-6.3899294e-02
-1.9001819e-02
-7.7301043e-01
0.0000000e+00
-1.0804202e-01
-6.2916642e-01
-3.2912310e-02
-2.5849181e-01
-2.0523089e-01
-3.3155596e-01
-1.6758050e-01
-8.8156745e-02
-4.2470503e-01
-4.9982842e-02
-1.4039576e-01
-5.4503351e-01
-1.0368486e-02
-2.3654357e-02
-7.2007753e-02
-1.1933381e-01
-8.3146960e-01
0.0000000e+00
-6.7612165e-01
-2.4306460e-01
-2.9572415e-01
-3.8455240e-02
-2.0656182e-01
-3.6919054e-01
-1.8036838e-01
-4.6338725e-01
-1.0123581e-01
-5.7876650e-02
-5.7167183e-03
-1.5941334e-01
-1.6004385e-02
-5.8749920e-01
-2.8516861e-02
-8.4249765e-02
-2.8459591e-01
-2.5166464e-01
-3.3423460e-01
-1.4000478e-01
-8.8192129e-01
0.0000000e+00
-7.2064501e-01
-2.2860657e-01
-4.0587875e-01
-4.4990104e-02
-2.0922865e-01
-4.9908096e-01
-1.2011400e-01
-6.7705043e-02
-6.9821235e-03
-1.8918024e-01
-1.8534847e-02
-6.2352693e-01
-3.0147257e-01
-3.2873714e-01
-3.3220902e-02
-2.8353420e-01
-3.7290311e-01
-9.9223651e-02
-1.6662957e-01
-9.2387950e-01
0.0000000e+00
-2.6868549e-01
-7.5717652e-01
-4.4051182e-01
-5.1775206e-02
-2.5254267e-01
-5.3109258e-01
-1.4113483e-01
-8.9117764e-03
-7.7881850e-02
-2.2843996e-02
-2.2978693e-01
-6.5439212e-01
-3.5397792e-01
-3.4621927e-01
-3.7329158e-01
-3.7081461e-02
-3.4272951e-01
-4.0982887e-01
-1.1333767e-01
-1.9883093e-01
-3.3153802e-01
-9.5694035e-01
0.0000000e+00
-4.7154358e-01
-7.8678584e-01
-5.7255417e-02
-5.5795747e-01
-1.3093093e-02
-1.6321014e-01
-8.5136265e-02
-2.4318129e-02
-4.0740007e-01
-4.6704239e-03
-3.4148550e-01
-4.1475999e-01
-4.2439026e-01
-6.7870206e-01
-3.8622800e-02
-4.4257575e-01
-4.2194477e-01
-4.5078692e-01
-1.2472404e-01
-3.0549651e-01
-4.9720675e-01
-9.8078525e-01
0.0000000e+00
-8.0863339e-01
-5.8792688e-02
-7.9793390e-03
-1.4013115e-02
-5.7845318e-01
-2.4648006e-01
-4.8400724e-01
-4.5724422e-01
-2.2954226e-02
-8.6637340e-02
-4.5008194e-01
-6.9566298e-01
-4.7338325e-01
-5.2454501e-01
-4.0460795e-01
-4.6858647e-01
-3.5844948e-02
-5.3750569e-01
-1.8745640e-01
-3.3342871e-01
-2.9061399e-03
-5.1573938e-01
-6.2146205e-03
-8.2225162e-01
-9.9518472e-01
0.0000000e+00
-5.3727798e-02
-5.9449649e-01
-1.0764362e-02
-5.9151232e-01
-2.6164442e-01
-1.2504290e-01
-5.0070101e-01
-5.6608087e-01
-1.7250877e-02
-4.7655669e-01
-8.0257751e-02
-7.0466954e-01
-4.8551765e-01
-6.4189690e-01
-2.6435014e-02
-1.9045059e-01
-9.4351260e-04
-5.2568597e-01
-2.1764913e-03
-8.2733053e-01
-1.0000000e+00
0.0000000e+00
-3.9863177e-02
-3.5935431e-03
-5.9501624e-01
-5.9635288e-01
-5.2759004e-01
-6.7751092e-01
-7.0508204e-02
-5.6353230e-03
-4.9100378e-01
-1.2038225e-01
-7.0535773e-01
-4.9170280e-01
-8.3992174e-03
3.0788134e-03
1.4892858e-03
5.3218831e-03
-5.2622592e-01
-8.2374525e-01
-9.9518472e-01
0.0000000e+00
-6.1009926e-01
-6.9961363e-01
8.4913783e-03
-5.3742272e-01
-1.3951332e-02
-5.9267348e-01
-5.1368594e-02
-4.9156910e-01
1.2939198e-02
2.3813080e-03
5.5649504e-03
-4.8655233e-01
-6.9770443e-01
1.0189074e-02
1.8715804e-02
1.6716359e-02
-5.1732910e-01
-7.0710677e-01
-8.1158626e-01
-9.8078525e-01
0.0000000e+00
2.6071617e-02
-6.1005384e-01
-5.2886885e-01
1.7107055e-02
-5.8072120e-01
4.9877949e-03
-4.7816673e-01
3.9139014e-02
4.2486813e-02
1.1874102e-02
-4.7060153e-01
-6.8203306e-01
2.0234929e-02
5.7860322e-02
3.2159567e-02
-4.9975356e-01
-6.9961363e-01
-7.9114521e-01
4.8959229e-02
-5.0299996e-01
-9.5694035e-01
0.0000000e+00
8.5767932e-02
-5.9460104e-01
-5.6123662e-01
-4.5264515e-01
1.1186686e-02
7.2039448e-02
2.0399379e-02
1.0040160e-01
-4.4540152e-01
3.3162262e-02
-6.5895009e-01
5.1350679e-02
-6.7751092e-01
-4.7490799e-01
7.6597467e-02
-4.6092334e-01
-7.6287103e-01
1.5526736e-01
-9.2387950e-01
0.0000000e+00
7.0910398e-03
-5.5158925e-01
1.8382909e-02
-5.3530324e-01
-4.1797024e-01
1.1290611e-01
3.0982859e-02
4.8565309e-02
-4.1324556e-01
1.5713182e-01
-6.2923759e-01
7.3424526e-02
-4.8731965e-01
-6.4189690e-01
-4.4456932e-01
-4.1097650e-01
1.0740950e-01
1.5148739e-02
-7.2731167e-01
2.2592488e-01
-8.8192129e-01
0.0000000e+00
2.7162261e-02
-5.0414407e-01
-3.7680855e-01
4.3259151e-02
1.5540461e-01
-5.2399290e-01
6.5700583e-02
-3.7675625e-01
-5.9373397e-01
2.1610971e-01
9.6983179e-02
-4.3329328e-01
-4.1053480e-01
-5.9449649e-01
1.0008210e-02
2.2721251e-02
-3.5766464e-01
1.3888884e-01
-6.8505484e-01
3.7281666e-02
2.9752213e-01
-8.3146960e-01
0.0000000e+00
-3.3251095e-01
-4.6892625e-01
5.6784488e-02
1.9719899e-01
8.3681263e-02
-4.5485905e-01
-3.3842757e-01
-5.5322921e-01
1.2049060e-01
7.8489408e-03
-3.5083893e-01
2.7590483e-01
1.8259548e-02
-3.7432826e-01
-5.3750569e-01
3.1694751e-02
-3.0539173e-01
1.6872932e-01
4.8715889e-02
-6.3668203e-01
3.6919361e-01
-7.7301043e-01
0.0000000e+00
7.1276039e-02
-2.8852659e-01
-4.3061897e-01
2.3467280e-01
1.0182538e-01
-3.4785724e-01
-3.0015588e-01
1.1976393e-02
-4.2180794e-01
-5.0839716e-01
-2.8774741e-01
1.4273407e-01
2.6915781e-02
4.2446587e-02
-4.7338325e-01
3.3573231e-01
-3.3704197e-01
-2.5552905e-01
6.1817672e-02
1.9500925e-01
4.3942845e-01
-5.8274359e-01
8.6924970e-02
-2.4701370e-01
-7.0710677e-01
0.0000000e+00
-3.8992789e-01
-3.3706769e-01
2.6505488e-01
1.2005981e-01
-2.7319419e-01
-2.6306325e-01
2.2718802e-02
3.8174007e-02
-2.3248322e-01
-4.5977280e-01
1.6329646e-01
-3.4418240e-01
5.5998117e-02
-4.0460795e-01
-2.9932556e-01
3.9362654e-01
-2.1022640e-01
7.7613831e-02
2.1722548e-01
5.0617850e-01
-5.2375734e-01
1.0473761e-01
-2.0913066e-01
-2.5721437e-01
-6.3439327e-01
0.0000000e+00
-3.4730241e-01
1.4398659e-02
2.8560138e-01
1.3933100e-01
-2.1312229e-01
3.5425056e-02
-2.2761308e-01
5.3654213e-02
-1.8384406e-01
-3.0549401e-01
1.8307126e-01
-4.0777206e-01
-3.3342868e-01
7.4112847e-02
3.6890262e-01
-2.6146099e-01
4.4910410e-01
-1.7100134e-01
9.8019823e-02
5.6704962e-01
2.3634991e-01
-2.3446792e-01
1.2678817e-01
-4.6022469e-01
-1.9304061e-01
-1.7502742e-01
-5.5557024e-01
0.0000000e+00
-3.0299145e-01
2.9226288e-02
2.9877290e-01
1.6191834e-01
-1.6273858e-01
5.3842451e-02
7.5695820e-02
-1.9379790e-01
-2.6164442e-01
-2.4637140e-01
-1.4346391e-01
2.0460877e-01
9.9408709e-02
-3.5273787e-01
3.7446386e-01
6.1954159e-01
-2.0339844e-01
1.2592222e-01
-1.3763076e-01
-2.2346810e-01
-1.7037816e-01
4.7716308e-01
2.5497636e-01
1.5628383e-01
-1.4317441e-01
-3.9265460e-01
-1.4426929e-01
2.3486959e-02
5.4773711e-02
-4.7139674e-01
0.0000000e+00
-2.5712627e-01
8.0795787e-02
-1.9045059e-01
-1.2212966e-01
3.1088227e-01
1.9148600e-01
1.0747053e-01
-1.8734983e-01
-1.6132456e-01
6.6129816e-01
-1.1074241e-01
1.3535692e-01
-1.6738273e-01
2.3219807e-01
5.4569906e-01
-2.9499495e-01
3.7284064e-01
-1.4464775e-01
1.6512600e-01
-1.0915516e-01
-1.8522383e-01
-1.2308301e-01
2.7820870e-01
-1.2038225e-01
1.9745232e-01
5.4141190e-02
-1.0379182e-01
4.4642046e-01
8.7060176e-02
-3.2158202e-01
-1.1616662e-01
6.9033593e-01
1.1989623e-01
-2.0980817e-01
-3.8268343e-01
0.0000000e+00
-9.0493135e-02
2.3285638e-01
3.2755259e-01
1.5278111e-01
-1.2670414e-01
-1.2828718e-01
-1.2976438e-01
-8.4182523e-02
-1.1646709e-01
1.8603462e-01
5.0035256e-01
2.7151239e-01
-1.0191756e-01
5.6245375e-01
-2.3489138e-01
-5.1368594e-02
3.7777752e-01
2.2003771e-01
-8.4428556e-02
-8.6558931e-02
7.0522755e-01
-1.4657761e-01
9.0986595e-02
3.1293488e-01
4.3993514e-02
2.5511855e-01
-7.4048832e-02
-7.0622541e-02
1.3302721e-01
4.2670882e-01
-8.9949913e-02
-2.4756201e-01
1.7427334e-01
6.0453123e-01
-6.5860011e-02
-8.2931660e-02
-1.6117923e-01
1.7107056e-02
-2.9028466e-01
0.0000000e+00
-8.9466035e-02
2.9141167e-01
2.1478549e-01
3.5564676e-01
-8.7776020e-02
7.0522755e-01
-8.0227196e-02
-9.8684654e-02
2.5464725e-01
-6.2174659e-02
4.7041532e-01
3.2871312e-01
-6.9739997e-02
-1.7285107e-01
3.9720151e-01
2.9395932e-01
3.4305729e-02
8.5767932e-02
-5.9653193e-02
8.8827655e-02
-6.2334545e-02
6.1212605e-01
1.4207539e-01
-1.0743161e-01
6.9033593e-01
-1.3500658e-02
3.6632004e-01
1.9427663e-01
-5.1621854e-02
-4.2394232e-02
3.3275279e-01
5.0434762e-01
2.4504605e-01
-6.4904898e-02
4.3403885e-01
-5.6046493e-02
-1.7110810e-01
1.5526736e-01
-6.0918301e-02
-4.6223149e-02
6.6129816e-01
-1.1155496e-01
2.9416934e-01
4.2310461e-02
3.7087691e-01
-5.9207212e-02
-1.9509032e-01
0.0000000e+00
4.0289050e-01
-5.3511035e-02
3.4147972e-01
-6.7736059e-02
-4.3294527e-02
2.2592488e-01
-4.6512082e-02
6.1954159e-01
5.2142376e-01
4.6297324e-01
4.0789512e-01
5.8554655e-01
1.4572603e-01
6.2417049e-02
-1.0943364e-01
3.8682729e-01
4.3642259e-01
2.9752213e-01
-3.9829791e-02
1.0034961e-01
2.1196584e-01
5.6704962e-01
-4.1895915e-02
-6.7729004e-02
5.8133197e-01
3.6919361e-01
2.7644521e-01
5.0617850e-01
4.3942845e-01
4.4300529e-01
-3.4244593e-02
4.3000463e-01
-1.0093423e-02
-2.7906157e-02
1.8447991e-02
-3.7443582e-02
3.3856422e-01
4.8197067e-01
5.2152550e-01
5.7490192e-02
-4.0159911e-02
-4.0475056e-02
4.6450484e-01
1.5713339e-01
-9.0938851e-02
-2.9909508e-02
-3.8501073e-02
3.9791086e-01
5.4611290e-01
4.7066724e-01
0.0000000e+00
-9.8017141e-02
4.7501037e-01
-3.4511022e-02
-5.3016096e-02
4.5408982e-01
2.1605775e-01
-3.6689315e-02
1.1891854e-01
-2.9646797e-02
4.8868778e-01
5.0826836e-01
2.1554251e-01
4.8479220e-01
5.0414652e-01
-2.3848714e-02
2.7580857e-01
5.0673223e-01
-2.4742447e-02
2.9413271e-01
4.4899487e-01
5.0238800e-01
-3.1863347e-02
4.7783601e-01
3.3564457e-01
3.9358377e-01
5.0098461e-01
3.7005955e-01
-6.6732983e-03
1.2174547e-02
-1.8359546e-02
-1.9654170e-02
-2.0101897e-02
3.8536798e-02
4.8897129e-01
-2.4078760e-02
5.4202718e-01
5.5543989e-01
4.4259423e-01
-1.9201037e-02
7.2096817e-02
-2.5404232e-02
4.9543726e-01
4.8276231e-01
1.1336893e-01
-2.3896806e-02
5.2348274e-01
5.1113367e-01
5.9973961e-01
1.5636180e-01
-2.0762775e-02
5.7095319e-01
0.0000000e+00
-1.2246469e-16
4.4739452e-01
0.0000000e+00
9.8017141e-02
1.9509032e-01
0.0000000e+00
5.7510424e-01
3.7111795e-01
1.9863641e-01
-1.2126341e-02
-1.6912945e-02
0.0000000e+00
2.9028466e-01
6.3905114e-01
4.9544182e-01
0.0000000e+00
3.8268343e-01
4.6479976e-01
5.3679162e-01
2.3646659e-01
6.3396740e-01
3.7632948e-01
5.9393901e-01
0.0000000e+00
4.7139674e-01
7.9130130e-03
-4.3070088e-03
2.5692053e-02
-1.1536543e-02
4.2777231e-01
-1.0948495e-02
4.8878759e-02
-1.4748046e-02
2.6699618e-01
0.0000000e+00
5.5557024e-01
7.6881692e-02
6.8719524e-01
6.7268491e-01
-1.4986398e-02
1.0804538e-01
3.7415820e-01
-1.3279112e-02
5.4126269e-01
0.0000000e+00
6.3439327e-01
2.8745934e-01
4.8480266e-01
6.0991579e-01
1.3986695e-01
4.3318567e-01
7.3425364e-01
-9.1229761e-03
6.9987935e-01
0.0000000e+00
7.0710677e-01
1.6998030e-01
3.0026561e-01
-6.4291377e-03
3.7852705e-01
7.7459472e-01
1.9639961e-01
5.3661960e-01
0.0000000e+00
7.7301043e-01
6.1801815e-01
4.9352911e-03
1.6458539e-02
-2.6446313e-03
4.6400872e-01
3.2092143e-02
-6.7881979e-03
3.1189299e-01
7.1988350e-01
5.1524580e-02
-8.1151612e-03
3.9717272e-01
2.1857558e-01
7.3856801e-02
0.0000000e+00
8.3146960e-01
8.0766553e-01
9.7658701e-02
3.2796586e-01
-5.8108517e-03
2.3745535e-01
6.1783940e-01
5.2311593e-01
1.2136346e-01
7.3203820e-01
8.8192129e-01
0.0000000e+00
4.3558508e-01
8.3293808e-01
1.4371477e-01
2.5566301e-01
3.5535607e-01
1.0037169e-02
2.8746987e-03
2.0192675e-02
-1.4766109e-03
9.2387950e-01
0.0000000e+00
1.6425055e-01
3.3271428e-02
6.0956818e-01
7.3587257e-01
5.0118208e-01
4.8849002e-02
2.7833545e-01
-2.9772341e-03
8.4994447e-01
6.6155799e-02
1.8383044e-01
4.0186426e-01
9.5694035e-01
0.0000000e+00
8.4274709e-02
3.1237626e-01
2.0499316e-01
1.0248802e-01
7.3163050e-01
5.9349686e-01
8.5795242e-01
4.7342870e-01
-7.7343732e-04
1.2068267e-01
9.8078525e-01
0.0000000e+00
5.5140476e-03
2.3204112e-01
1.1874245e-02
1.3746951e-03
2.0482309e-02
3.6502600e-01
3.1167641e-02
1.3976984e-01
4.3549482e-02
7.1943003e-01
8.5830283e-01
5.6902254e-01
2.7067965e-01
5.7158723e-02
0.0000000e+00
9.9518472e-01
1.6200846e-01
4.4108197e-01
7.1682870e-02
3.2713619e-01
8.7277822e-02
1.9106250e-01
8.4909087e-01
6.9935912e-01
2.5710668e-03
1.0000000e+00
0.0000000e+00
5.3962010e-01
1.0491461e-01
1.1287479e-02
5.1911008e-03
1.8523898e-02
2.3177320e-01
2.7359826e-02
4.0564033e-01
1.2664072e-01
3.7518255e-02
8.3240670e-01
0.0000000e+00
9.9518472e-01
4.8954461e-02
6.6996855e-01
2.8957725e-01
1.5565144e-01
6.1989553e-02
5.0542563e-01
7.7615991e-02
1.9617935e-01
3.6832649e-01
9.8078525e-01
0.0000000e+00
8.0508077e-01
9.7718589e-02
1.5322579e-02
6.3575983e-01
2.2892788e-02
2.5309110e-01
7.1903816e-03
4.6744874e-01
3.1846311e-02
1.2516314e-01
4.2523917e-02
9.5694035e-01
0.0000000e+00
3.2997724e-01
7.7138394e-01
1.6374743e-01
5.5914011e-02
5.9595424e-01
7.3746972e-02
2.1790726e-01
4.2649418e-01
9.2387950e-01
0.0000000e+00
9.8614290e-02
7.3046499e-01
1.8391149e-02
1.0129201e-02
2.9105607e-01
2.6970565e-02
5.5126041e-01
1.3396974e-01
3.8083833e-02
3.8313285e-01
1.8390729e-01
5.3308088e-02
8.8192129e-01
0.0000000e+00
6.8292618e-01
7.4957505e-02
2.5173220e-01
5.0227869e-01
6.9122603e-03
1.0617729e-01
1.2065341e-02
8.3146960e-01
0.0000000e+00
2.2696704e-02
3.3772868e-01
1.5077247e-01
6.2933344e-01
3.5176672e-02
4.4950148e-01
5.3242218e-02
2.1198715e-01
7.7301043e-01
0.0000000e+00
7.9699099e-02
2.9050407e-01
5.7023913e-01
1.1812484e-01
3.9334318e-01
1.7172542e-01
1.4402166e-02
7.0710677e-01
0.0000000e+00
2.9036304e-02
5.3975765e-02
5.0618720e-01
2.4161789e-01
8.5647017e-02
3.3418489e-01
6.3439327e-01
0.0000000e+00
1.3086087e-01
4.3772918e-01
1.9123317e-01
5.3234827e-02
2.3354637e-02
2.7241737e-01
5.5557024e-01
0.0000000e+00
8.9323334e-02
3.6544135e-01
1.3957563e-01
2.0850471e-01
4.7139674e-01
0.0000000e+00
2.8994817e-01
4.3496244e-02
8.6880460e-02
3.8268343e-01
0.0000000e+00
1.4301172e-01
2.1193035e-01
4.1107155e-02
2.9028466e-01
0.0000000e+00
6.8835117e-02
1.3205050e-01
1.9509032e-01
0.0000000e+00
9.8017141e-02
0.0000000e+00
1.2246469e-16
CELL_DATA 1833
FIELD FieldData 0
