# vtk DataFile Version 4.0
vtk output
ASCII
DATASET UNSTRUCTURED_GRID
POINTS 2601 float
0.0000000e+00 0.0000000e+00 0.0000000e+00 
2.0000000e-02 0.0000000e+00 0.0000000e+00 
0.0000000e+00 2.0000000e-02 0.0000000e+00 
2.0000000e-02 2.0000000e-02 0.0000000e+00 
3.9999999e-02 0.0000000e+00 0.0000000e+00 
0.0000000e+00 3.9999999e-02 0.0000000e+00 
3.9999999e-02 2.0000000e-02 0.0000000e+00 
2.0000000e-02 3.9999999e-02 0.0000000e+00 
3.9999999e-02 3.9999999e-02 0.0000000e+00 
5.9999999e-02 0.0000000e+00 0.0000000e+00 
0.0000000e+00 5.9999999e-02 0.0000000e+00 
5.9999999e-02 2.0000000e-02 0.0000000e+00 
2.0000000e-02 5.9999999e-02 0.0000000e+00 
5.9999999e-02 3.9999999e-02 0.0000000e+00 
3.9999999e-02 5.9999999e-02 0.0000000e+00 
0.0000000e+00 7.9999998e-02 0.0000000e+00 
7.9999998e-02 0.0000000e+00 0.0000000e+00 
2.0000000e-02 7.9999998e-02 0.0000000e+00 
7.9999998e-02 2.0000000e-02 0.0000000e+00 
5.9999999e-02 5.9999999e-02 0.0000000e+00 
3.9999999e-02 7.9999998e-02 0.0000000e+00 
7.9999998e-02 3.9999999e-02 0.0000000e+00 
5.9999999e-02 7.9999998e-02 0.0000000e+00 
0.0000000e+00 1.0000000e-01 0.0000000e+00 
1.0000000e-01 0.0000000e+00 0.0000000e+00 
7.9999998e-02 5.9999999e-02 0.0000000e+00 
2.0000000e-02 1.0000000e-01 0.0000000e+00 
1.0000000e-01 2.0000000e-02 0.0000000e+00 
3.9999999e-02 1.0000000e-01 0.0000000e+00 
1.0000000e-01 3.9999999e-02 0.0000000e+00 
7.9999998e-02 7.9999998e-02 0.0000000e+00 
5.9999999e-02 1.0000000e-01 0.0000000e+00 
1.0000000e-01 5.9999999e-02 0.0000000e+00 
0.0000000e+00 1.2000000e-01 0.0000000e+00 
1.2000000e-01 0.0000000e+00 0.0000000e+00 
1.2000000e-01 2.0000000e-02 0.0000000e+00 
2.0000000e-02 1.2000000e-01 0.0000000e+00 
3.9999999e-02 1.2000000e-01 0.0000000e+00 
1.2000000e-01 3.9999999e-02 0.0000000e+00 
1.0000000e-01 7.9999998e-02 0.0000000e+00 
7.9999998e-02 1.0000000e-01 0.0000000e+00 
5.9999999e-02 1.2000000e-01 0.0000000e+00 
1.2000000e-01 5.9999999e-02 0.0000000e+00 
0.0000000e+00 1.4000000e-01 0.0000000e+00 
1.4000000e-01 0.0000000e+00 0.0000000e+00 
1.0000000e-01 1.0000000e-01 0.0000000e+00 
1.4000000e-01 2.0000000e-02 0.0000000e+00 
2.0000000e-02 1.4000000e-01 0.0000000e+00 
1.2000000e-01 7.9999998e-02 0.0000000e+00 
7.9999998e-02 1.2000000e-01 0.0000000e+00 
3.9999999e-02 1.4000000e-01 0.0000000e+00 
1.4000000e-01 3.9999999e-02 0.0000000e+00 
5.9999999e-02 1.4000000e-01 0.0000000e+00 
1.4000000e-01 5.9999999e-02 0.0000000e+00 
1.2000000e-01 1.0000000e-01 0.0000000e+00 
1.0000000e-01 1.2000000e-01 0.0000000e+00 
1.6000000e-01 0.0000000e+00 0.0000000e+00 
0.0000000e+00 1.6000000e-01 0.0000000e+00 
1.4000000e-01 7.9999998e-02 0.0000000e+00 
1.6000000e-01 2.0000000e-02 0.0000000e+00 
7.9999998e-02 1.4000000e-01 0.0000000e+00 
2.0000000e-02 1.6000000e-01 0.0000000e+00 
1.6000000e-01 3.9999999e-02 0.0000000e+00 
3.9999999e-02 1.6000000e-01 0.0000000e+00 
1.2000000e-01 1.2000000e-01 0.0000000e+00 
1.6000000e-01 5.9999999e-02 0.0000000e+00 
5.9999999e-02 1.6000000e-01 0.0000000e+00 
1.4000000e-01 1.0000000e-01 0.0000000e+00 
1.0000000e-01 1.4000000e-01 0.0000000e+00 
1.6000000e-01 7.9999998e-02 0.0000000e+00 
7.9999998e-02 1.6000000e-01 0.0000000e+00 
0.0000000e+00 1.8000001e-01 0.0000000e+00 
1.8000001e-01 0.0000000e+00 0.0000000e+00 
2.0000000e-02 1.8000001e-01 0.0000000e+00 
1.8000001e-01 2.0000000e-02 0.0000000e+00 
3.9999999e-02 1.8000001e-01 0.0000000e+00 
1.2000000e-01 1.4000000e-01 0.0000000e+00 
1.8000001e-01 3.9999999e-02 0.0000000e+00 
1.4000000e-01 1.2000000e-01 0.0000000e+00 
1.6000000e-01 1.0000000e-01 0.0000000e+00 
1.0000000e-01 1.6000000e-01 0.0000000e+00 
5.9999999e-02 1.8000001e-01 0.0000000e+00 
1.8000001e-01 5.9999999e-02 0.0000000e+00 
7.9999998e-02 1.8000001e-01 0.0000000e+00 
1.8000001e-01 7.9999998e-02 0.0000000e+00 
1.4000000e-01 1.4000000e-01 0.0000000e+00 
1.6000000e-01 1.2000000e-01 0.0000000e+00 
2.0000000e-01 0.0000000e+00 0.0000000e+00 
0.0000000e+00 2.0000000e-01 0.0000000e+00 
1.2000000e-01 1.6000000e-01 0.0000000e+00 
2.0000000e-02 2.0000000e-01 0.0000000e+00 
2.0000000e-01 2.0000000e-02 0.0000000e+00 
3.9999999e-02 2.0000000e-01 0.0000000e+00 
2.0000000e-01 3.9999999e-02 0.0000000e+00 
1.0000000e-01 1.8000001e-01 0.0000000e+00 
1.8000001e-01 1.0000000e-01 0.0000000e+00 
5.9999999e-02 2.0000000e-01 0.0000000e+00 
2.0000000e-01 5.9999999e-02 0.0000000e+00 
1.6000000e-01 1.4000000e-01 0.0000000e+00 
1.4000000e-01 1.6000000e-01 0.0000000e+00 
7.9999998e-02 2.0000000e-01 0.0000000e+00 
2.0000000e-01 7.9999998e-02 0.0000000e+00 
1.2000000e-01 1.8000001e-01 0.0000000e+00 
1.8000001e-01 1.2000000e-01 0.0000000e+00 
2.2000000e-01 0.0000000e+00 0.0000000e+00 
0.0000000e+00 2.2000000e-01 0.0000000e+00 
2.2000000e-01 2.0000000e-02 0.0000000e+00 
2.0000000e-02 2.2000000e-01 0.0000000e+00 
1.0000000e-01 2.0000000e-01 0.0000000e+00 
3.9999999e-02 2.2000000e-01 0.0000000e+00 
2.2000000e-01 3.9999999e-02 0.0000000e+00 
2.0000000e-01 1.0000000e-01 0.0000000e+00 
1.6000000e-01 1.6000000e-01 0.0000000e+00 
1.4000000e-01 1.8000001e-01 0.0000000e+00 
2.2000000e-01 5.9999999e-02 0.0000000e+00 
1.8000001e-01 1.4000000e-01 0.0000000e+00 
5.9999999e-02 2.2000000e-01 0.0000000e+00 
1.2000000e-01 2.0000000e-01 0.0000000e+00 
2.0000000e-01 1.2000000e-01 0.0000000e+00 
7.9999998e-02 2.2000000e-01 0.0000000e+00 
2.2000000e-01 7.9999998e-02 0.0000000e+00 
0.0000000e+00 2.3999999e-01 0.0000000e+00 
2.3999999e-01 0.0000000e+00 0.0000000e+00 
1.6000000e-01 1.8000001e-01 0.0000000e+00 
2.3999999e-01 2.0000000e-02 0.0000000e+00 
1.8000001e-01 1.6000000e-01 0.0000000e+00 
2.0000000e-02 2.3999999e-01 0.0000000e+00 
2.2000000e-01 1.0000000e-01 0.0000000e+00 
1.0000000e-01 2.2000000e-01 0.0000000e+00 
3.9999999e-02 2.3999999e-01 0.0000000e+00 
2.3999999e-01 3.9999999e-02 0.0000000e+00 
1.4000000e-01 2.0000000e-01 0.0000000e+00 
2.0000000e-01 1.4000000e-01 0.0000000e+00 
2.3999999e-01 5.9999999e-02 0.0000000e+00 
5.9999999e-02 2.3999999e-01 0.0000000e+00 
2.2000000e-01 1.2000000e-01 0.0000000e+00 
1.2000000e-01 2.2000000e-01 0.0000000e+00 
2.3999999e-01 7.9999998e-02 0.0000000e+00 
7.9999998e-02 2.3999999e-01 0.0000000e+00 
1.8000001e-01 1.8000001e-01 0.0000000e+00 
1.6000000e-01 2.0000000e-01 0.0000000e+00 
2.0000000e-01 1.6000000e-01 0.0000000e+00 
2.3999999e-01 1.0000000e-01 0.0000000e+00 
1.0000000e-01 2.3999999e-01 0.0000000e+00 
0.0000000e+00 2.5999999e-01 0.0000000e+00 
2.5999999e-01 0.0000000e+00 0.0000000e+00 
2.2000000e-01 1.4000000e-01 0.0000000e+00 
1.4000000e-01 2.2000000e-01 0.0000000e+00 
2.0000000e-02 2.5999999e-01 0.0000000e+00 
2.5999999e-01 2.0000000e-02 0.0000000e+00 
3.9999999e-02 2.5999999e-01 0.0000000e+00 
2.5999999e-01 3.9999999e-02 0.0000000e+00 
2.5999999e-01 5.9999999e-02 0.0000000e+00 
5.9999999e-02 2.5999999e-01 0.0000000e+00 
1.2000000e-01 2.3999999e-01 0.0000000e+00 
2.3999999e-01 1.2000000e-01 0.0000000e+00 
1.8000001e-01 2.0000000e-01 0.0000000e+00 
2.0000000e-01 1.8000001e-01 0.0000000e+00 
2.5999999e-01 7.9999998e-02 0.0000000e+00 
1.6000000e-01 2.2000000e-01 0.0000000e+00 
7.9999998e-02 2.5999999e-01 0.0000000e+00 
2.2000000e-01 1.6000000e-01 0.0000000e+00 
1.4000000e-01 2.3999999e-01 0.0000000e+00 
2.3999999e-01 1.4000000e-01 0.0000000e+00 
1.0000000e-01 2.5999999e-01 0.0000000e+00 
2.5999999e-01 1.0000000e-01 0.0000000e+00 
0.0000000e+00 2.8000000e-01 0.0000000e+00 
2.8000000e-01 0.0000000e+00 0.0000000e+00 
2.0000000e-02 2.8000000e-01 0.0000000e+00 
2.8000000e-01 2.0000000e-02 0.0000000e+00 
2.0000000e-01 2.0000000e-01 0.0000000e+00 
3.9999999e-02 2.8000000e-01 0.0000000e+00 
2.8000000e-01 3.9999999e-02 0.0000000e+00 
1.8000001e-01 2.2000000e-01 0.0000000e+00 
2.2000000e-01 1.8000001e-01 0.0000000e+00 
2.5999999e-01 1.2000000e-01 0.0000000e+00 
5.9999999e-02 2.8000000e-01 0.0000000e+00 
2.8000000e-01 5.9999999e-02 0.0000000e+00 
1.2000000e-01 2.5999999e-01 0.0000000e+00 
1.6000000e-01 2.3999999e-01 0.0000000e+00 
2.3999999e-01 1.6000000e-01 0.0000000e+00 
2.8000000e-01 7.9999998e-02 0.0000000e+00 
7.9999998e-02 2.8000000e-01 0.0000000e+00 
1.4000000e-01 2.5999999e-01 0.0000000e+00 
2.5999999e-01 1.4000000e-01 0.0000000e+00 
2.2000000e-01 2.0000000e-01 0.0000000e+00 
2.8000000e-01 1.0000000e-01 0.0000000e+00 
2.0000000e-01 2.2000000e-01 0.0000000e+00 
1.0000000e-01 2.8000000e-01 0.0000000e+00 
2.3999999e-01 1.8000001e-01 0.0000000e+00 
3.0000001e-01 0.0000000e+00 0.0000000e+00 
1.8000001e-01 2.3999999e-01 0.0000000e+00 
0.0000000e+00 3.0000001e-01 0.0000000e+00 
3.0000001e-01 2.0000000e-02 0.0000000e+00 
2.0000000e-02 3.0000001e-01 0.0000000e+00 
3.9999999e-02 3.0000001e-01 0.0000000e+00 
3.0000001e-01 3.9999999e-02 0.0000000e+00 
1.2000000e-01 2.8000000e-01 0.0000000e+00 
2.8000000e-01 1.2000000e-01 0.0000000e+00 
1.6000000e-01 2.5999999e-01 0.0000000e+00 
2.5999999e-01 1.6000000e-01 0.0000000e+00 
5.9999999e-02 3.0000001e-01 0.0000000e+00 
3.0000001e-01 5.9999999e-02 0.0000000e+00 
3.0000001e-01 7.9999998e-02 0.0000000e+00 
7.9999998e-02 3.0000001e-01 0.0000000e+00 
2.2000000e-01 2.2000000e-01 0.0000000e+00 
2.3999999e-01 2.0000000e-01 0.0000000e+00 
2.0000000e-01 2.3999999e-01 0.0000000e+00 
2.8000000e-01 1.4000000e-01 0.0000000e+00 
1.4000000e-01 2.8000000e-01 0.0000000e+00 
1.8000001e-01 2.5999999e-01 0.0000000e+00 
2.5999999e-01 1.8000001e-01 0.0000000e+00 
3.0000001e-01 1.0000000e-01 0.0000000e+00 
1.0000000e-01 3.0000001e-01 0.0000000e+00 
0.0000000e+00 3.1999999e-01 0.0000000e+00 
3.1999999e-01 0.0000000e+00 0.0000000e+00 
3.1999999e-01 2.0000000e-02 0.0000000e+00 
2.0000000e-02 3.1999999e-01 0.0000000e+00 
1.6000000e-01 2.8000000e-01 0.0000000e+00 
2.8000000e-01 1.6000000e-01 0.0000000e+00 
3.1999999e-01 3.9999999e-02 0.0000000e+00 
3.9999999e-02 3.1999999e-01 0.0000000e+00 
1.2000000e-01 3.0000001e-01 0.0000000e+00 
3.0000001e-01 1.2000000e-01 0.0000000e+00 
2.2000000e-01 2.3999999e-01 0.0000000e+00 
2.3999999e-01 2.2000000e-01 0.0000000e+00 
5.9999999e-02 3.1999999e-01 0.0000000e+00 
3.1999999e-01 5.9999999e-02 0.0000000e+00 
2.5999999e-01 2.0000000e-01 0.0000000e+00 
2.0000000e-01 2.5999999e-01 0.0000000e+00 
[...]
POINT_DATA 2601
FIELD FieldData 1
TEMPERATURE 1 2601  float
0.0000000e+00
6.2790520e-02
0.0000000e+00
6.2664799e-02
1.2533323e-01
0.0000000e+00
1.2508228e-01
6.2291928e-02
1.2433801e-01
1.8738131e-01
0.0000000e+00
1.8700613e-01
6.1673358e-02
1.8589337e-01
1.2310331e-01
0.0000000e+00
2.4868989e-01
6.0811531e-02
2.4819192e-01
1.8404740e-01
1.2138305e-01
2.4671507e-01
1.8147548e-01
0.0000000e+00
3.0901700e-01
2.4426509e-01
5.9709840e-02
3.0839822e-01
1.1918400e-01
3.0656308e-01
2.4085164e-01
1.7818773e-01
3.0351874e-01
0.0000000e+00
3.6812454e-01
3.6738738e-01
5.8372628e-02
1.1651485e-01
3.6520121e-01
2.9927722e-01
2.3648815e-01
1.7419714e-01
3.6157450e-01
0.0000000e+00
4.2577928e-01
2.9385516e-01
4.2492664e-01
5.6805179e-02
3.5652161e-01
2.3119184e-01
1.1338612e-01
4.2239803e-01
1.6951945e-01
4.1820326e-01
3.5006234e-01
2.8727397e-01
4.8175368e-01
0.0000000e+00
4.1235891e-01
4.8078892e-01
2.2498362e-01
5.5013672e-02
4.7792783e-01
1.0981016e-01
3.4222221e-01
4.7318161e-01
1.6417313e-01
4.0488788e-01
2.7955964e-01
4.6656880e-01
2.1788798e-01
0.0000000e+00
5.3582680e-01
5.3005192e-02
5.3475380e-01
1.0580111e-01
3.3303216e-01
5.3157157e-01
3.9581966e-01
4.5811546e-01
2.7074262e-01
1.5817930e-01
5.2629250e-01
2.0993297e-01
5.1893735e-01
3.8519007e-01
4.4785488e-01
5.8778524e-01
0.0000000e+00
3.2252845e-01
5.0787661e-02
5.8660823e-01
1.0137479e-01
5.8311749e-01
2.6085776e-01
5.0953501e-01
1.5156162e-01
5.7732654e-01
4.3582755e-01
3.7304103e-01
2.0115000e-01
5.6925809e-01
3.1075263e-01
4.9812251e-01
6.3742399e-01
0.0000000e+00
6.3614768e-01
4.8369847e-02
2.4994411e-01
9.6548684e-02
6.3236219e-01
5.5894381e-01
4.2208096e-01
3.5942057e-01
6.2608224e-01
4.8474482e-01
1.4434625e-01
2.9775122e-01
5.4642433e-01
1.9157380e-01
6.1733240e-01
0.0000000e+00
6.8454713e-01
4.0666947e-01
6.8317664e-01
4.6945477e-01
4.5761287e-02
6.0614693e-01
2.3804478e-01
9.1341853e-02
6.7911154e-01
3.4438258e-01
5.3174895e-01
6.7236745e-01
1.3656169e-01
5.9256983e-01
2.8357565e-01
6.6297072e-01
1.8124218e-01
4.5231280e-01
3.8965401e-01
5.1497555e-01
6.5095824e-01
2.2520684e-01
0.0000000e+00
7.2896862e-01
5.7665455e-01
3.2798654e-01
4.2972278e-02
7.2750956e-01
8.5774839e-02
7.2318095e-01
7.1599948e-01
1.2823865e-01
2.6828197e-01
6.3637710e-01
4.3338674e-01
4.9617049e-01
7.0599318e-01
3.7110198e-01
1.7019594e-01
5.5846381e-01
3.1029734e-01
6.1928469e-01
2.1148099e-01
6.9320112e-01
0.0000000e+00
7.7051324e-01
4.0013824e-02
7.6897150e-01
4.7540817e-01
7.9869613e-02
7.6439667e-01
4.1275159e-01
5.3806955e-01
6.7767358e-01
1.1940996e-01
7.5680631e-01
2.5193062e-01
3.5108683e-01
5.9974825e-01
7.4623007e-01
1.5847868e-01
2.9138491e-01
6.5947151e-01
5.1555246e-01
7.3270917e-01
4.5277086e-01
1.9692139e-01
5.7784498e-01
8.0901700e-01
3.9048913e-01
0.0000000e+00
8.0739892e-01
3.6897585e-02
7.3649459e-02
8.0259609e-01
2.3458616e-01
7.1629667e-01
3.2968780e-01
6.3866639e-01
1.1011046e-01
7.9462701e-01
7.8352278e-01
1.4613658e-01
4.9100173e-01
5.5366135e-01
4.2834845e-01
6.9705683e-01
2.7132404e-01
3.6668769e-01
6.1534023e-01
7.6932675e-01
1.8158548e-01
0.0000000e+00
8.4432793e-01
8.4264004e-01
3.3635844e-02
3.0698964e-01
6.7506516e-01
8.3762848e-01
6.7138873e-02
2.1631706e-01
7.5209433e-01
4.6451497e-01
5.2729332e-01
1.0037678e-01
8.2931244e-01
5.8958501e-01
4.0223795e-01
1.3321829e-01
8.1772441e-01
7.3189294e-01
2.5019395e-01
3.4144160e-01
6.5040803e-01
1.6553368e-01
8.0290949e-01
4.9884576e-01
2.8308201e-01
8.7630665e-01
0.0000000e+00
7.0880175e-01
5.6150281e-01
4.3619764e-01
8.7455595e-01
3.0241448e-02
1.9719526e-01
7.8492558e-01
8.6935562e-01
6.0363501e-02
6.2318248e-01
3.7454316e-01
9.0247236e-02
8.6072576e-01
8.4869999e-01
2.2807784e-01
7.6384288e-01
1.1977465e-01
6.8291110e-01
3.1485087e-01
4.6843204e-01
5.3120524e-01
1.4882918e-01
8.3332521e-01
5.9349585e-01
4.0616253e-01
2.5805920e-01
7.3974377e-01
9.0482706e-01
0.0000000e+00
2.6727762e-02
6.5432256e-01
9.0302056e-01
3.4537411e-01
1.7729603e-01
8.1466132e-01
5.3350028e-02
8.9765227e-01
7.9761714e-02
8.8874292e-01
7.1272236e-01
2.8702042e-01
4.9881372e-01
7.9278111e-01
2.0506275e-01
1.0585859e-01
8.7632728e-01
4.3617401e-01
5.6146634e-01
6.2314826e-01
3.7452978e-01
1.3153765e-01
8.6045378e-01
2.3201957e-01
7.6776987e-01
6.8288404e-01
3.1484622e-01
1.5669756e-01
8.4118432e-01
0.0000000e+00
9.2977649e-01
2.3108620e-02
9.2792153e-01
9.2240667e-01
4.6126056e-02
5.2722132e-01
4.6445724e-01
4.0219995e-01
5.8950967e-01
6.8961494e-02
9.1325331e-01
7.3972523e-01
2.5805977e-01
1.8123902e-01
8.1859392e-01
3.4142530e-01
9.0049720e-01
9.1524839e-02
6.5034562e-01
8.8418823e-01
1.1372711e-01
7.9277033e-01
2.0506521e-01
7.0875627e-01
2.8307986e-01
4.9090335e-01
5.5354661e-01
4.2827705e-01
8.6439002e-01
1.3548076e-01
6.1523336e-01
9.5105654e-01
0.0000000e+00
3.6664981e-01
9.4916058e-01
1.9398281e-02
9.4352096e-01
3.8720042e-02
2.2808212e-01
7.6381403e-01
5.7889078e-02
9.3415993e-01
8.4117967e-01
1.5670012e-01
3.0697921e-01
6.7498189e-01
7.6829806e-02
9.2111403e-01
4.5264438e-01
5.1539117e-01
7.3183841e-01
2.5019902e-01
8.1464714e-01
1.7730163e-01
5.7766891e-01
9.0443444e-01
3.9040557e-01
9.5467590e-02
3.2966390e-01
6.3853914e-01
1.1372904e-01
8.8418651e-01
0.0000000e+00
9.6858317e-01
1.5611360e-02
7.8489488e-01
1.9720438e-01
9.6665365e-01
3.1161159e-02
2.7132818e-01
6.9696808e-01
9.6091169e-01
8.6044919e-01
1.3154233e-01
9.5137990e-01
4.6588093e-02
4.7525695e-01
5.3787804e-01
4.1264606e-01
6.1831370e-02
9.3809587e-01
5.9956694e-01
3.5104072e-01
7.5203747e-01
2.1633054e-01
1.4883757e-01
8.3331448e-01
7.6830961e-02
9.2111188e-01
2.9137713e-01
6.5931779e-01
9.0049487e-01
9.1527894e-02
8.0288637e-01
1.6554704e-01
4.3310404e-01
4.9581051e-01
7.1621269e-01
2.3460791e-01
0.0000000e+00
9.8228723e-01
9.8033172e-01
1.1762790e-02
3.7088254e-01
5.5801362e-01
9.7450989e-01
2.3479210e-02
1.0586450e-01
8.7632555e-01
9.6484494e-01
3.5103086e-02
6.1911923e-01
3.1030387e-01
9.5137513e-01
4.6588629e-02
7.6928008e-01
1.8160579e-01
1.1978467e-01
6.7756826e-01
8.4869832e-01
2.5196773e-01
9.3415385e-01
5.7890657e-02
4.5242897e-01
3.8979062e-01
5.1503825e-01
6.8964787e-02
9.1324931e-01
3.2808936e-01
5.7657462e-01
1.9695121e-01
7.3261136e-01
1.3323419e-01
8.1771940e-01
9.9211472e-01
0.0000000e+00
7.8677582e-03
6.3598311e-01
2.6823071e-01
9.9014062e-01
1.5704507e-02
7.9767644e-02
8.8874429e-01
9.8426169e-01
2.3479370e-02
9.7450137e-01
1.4616069e-01
7.8350359e-01
2.1155269e-01
6.9313288e-01
3.1161739e-02
9.6089864e-01
4.0721560e-01
4.7003445e-01
9.0257160e-02
8.6073560e-01
3.4480509e-01
5.3215271e-01
3.8721405e-02
9.4350767e-01
2.8383660e-01
5.9273791e-01
1.5851358e-01
7.4617350e-01
4.6128709e-02
8.2933301e-01
1.0039277e-01
9.2239779e-01
2.2542880e-01
6.5116727e-01
9.9802673e-01
0.0000000e+00
3.9416412e-03
9.9604154e-01
5.3354718e-02
8.9765352e-01
4.2311490e-01
9.9012828e-01
7.8677488e-03
4.8572379e-01
3.6030820e-01
1.1013558e-01
7.9465795e-01
7.0564729e-01
9.8031074e-01
1.7021111e-01
1.1762856e-02
2.9848576e-01
5.4736251e-01
9.6662819e-01
1.5611629e-02
6.0371403e-02
8.6937416e-01
6.0691762e-01
2.3852222e-01
1.9398941e-02
9.4913530e-01
7.5683022e-01
1.1944745e-01
6.7151941e-02
1.8150644e-01
6.6329920e-01
8.3767384e-01
9.2790234e-01
2.3109941e-02
0.0000000e+00
0.0000000e+00
0.0000000e+00
0.0000000e+00
0.0000000e+00
9.0301484e-01
1.0000000e+00
2.6730150e-02
5.6044358e-01
2.5088894e-01
9.9801111e-01
-4.9470490e-08
7.1607012e-01
1.2829418e-01
9.9208641e-01
-1.0089929e-07
7.3671363e-02
8.0268168e-01
-1.5655156e-07
9.8224980e-01
6.1868823e-01
1.9221172e-01
8.7457418e-01
3.0245569e-02
-2.1940599e-07
9.6854061e-01
0.0000000e+00
7.9907171e-02
-2.9381545e-07
9.5101374e-01
0.0000000e+00
0.0000000e+00
7.6454937e-01
1.3675091e-01
6.7288309e-01
0.0000000e+00
0.0000000e+00
3.3642922e-02
8.4269768e-01
9.2973971e-01
-3.8670356e-07
0.0000000e+00
0.0000000e+00
8.5860386e-02
7.2345382e-01
9.0480465e-01
-5.1012131e-07
8.0752081e-01
9.9802673e-01
0.0000000e+00
3.6910117e-02
9.9604154e-01
-3.9417385e-03
1.4486685e-01
-7.8679472e-03
6.2754279e-01
9.9012828e-01
0.0000000e+00
0.0000000e+00
9.8031074e-01
-1.1763162e-02
-6.8469797e-07
8.7631029e-01
0.0000000e+00
0.0000000e+00
-1.5612057e-02
9.6662813e-01
0.0000000e+00
7.6920342e-01
4.0040262e-02
0.0000000e+00
6.8000162e-01
9.1551796e-02
-1.9399511e-02
9.4913530e-01
8.4437543e-01
-9.6756969e-07
0.0000000e+00
0.0000000e+00
-2.3110688e-02
9.2790228e-01
4.3008130e-02
7.2789347e-01
0.0000000e+00
0.0000000e+00
0.0000000e+00
-2.6731122e-02
-1.2694242e-06
8.0913705e-01
0.0000000e+00
0.0000000e+00
9.0301478e-01
9.9211472e-01
0.0000000e+00
0.0000000e+00
-7.8678494e-03
9.9014062e-01
0.0000000e+00
-1.5704693e-02
9.8426169e-01
-2.3479657e-02
9.7450137e-01
0.0000000e+00
0.0000000e+00
8.7457395e-01
-3.0246859e-02
4.5881130e-02
6.8423653e-01
9.6089864e-01
-3.1162135e-02
-3.5649377e-06
7.7074766e-01
0.0000000e+00
0.0000000e+00
-3.8721927e-02
9.4350761e-01
8.4269714e-01
-3.3644658e-02
0.0000000e+00
0.0000000e+00
0.0000000e+00
9.2239773e-01
0.0000000e+00
-4.6129379e-02
2.2969260e-05
7.2945243e-01
0.0000000e+00
0.0000000e+00
0.0000000e+00
0.0000000e+00
-3.6912877e-02
8.0751902e-01
-5.3355567e-02
8.9765340e-01
9.8228723e-01
0.0000000e+00
0.0000000e+00
0.0000000e+00
9.8033172e-01
-1.1762874e-02
-2.3479380e-02
9.7450989e-01
-6.0372468e-02
8.6937392e-01
9.6484494e-01
-3.5103343e-02
6.8572265e-01
3.1482909e-05
-4.0041391e-02
7.6919711e-01
0.0000000e+00
-4.6588983e-02
9.5137513e-01
0.0000000e+00
0.0000000e+00
0.0000000e+00
0.0000000e+00
0.0000000e+00
0.0000000e+00
-5.7891112e-02
9.3415385e-01
8.3767325e-01
-6.7153312e-02
0.0000000e+00
0.0000000e+00
-4.3054461e-02
9.1324931e-01
-6.8965346e-02
7.2783065e-01
0.0000000e+00
0.0000000e+00
8.0268013e-01
-7.3672920e-02
0.0000000e+00
0.0000000e+00
-7.9768330e-02
8.8874424e-01
0.0000000e+00
9.6858317e-01
0.0000000e+00
0.0000000e+00
9.6665365e-01
-1.5611433e-02
-3.1161306e-02
9.6091169e-01
0.0000000e+00
-4.5917742e-02
0.0000000e+00
6.8418550e-01
-9.0257958e-02
8.6073542e-01
9.5137990e-01
7.6454413e-01
0.0000000e+00
0.0000000e+00
-7.9911850e-02
-4.6588317e-02
0.0000000e+00
0.0000000e+00
9.3809587e-01
-6.1831668e-02
-1.0039362e-01
0.0000000e+00
0.0000000e+00
8.2933277e-01
9.2111188e-01
-7.6831341e-02
0.0000000e+00
0.0000000e+00
7.2347468e-01
-8.5850336e-02
-9.1528349e-02
9.0049481e-01
0.0000000e+00
0.0000000e+00
0.0000000e+00
-1.1013650e-01
0.0000000e+00
0.0000000e+00
7.9465765e-01
-1.0586500e-01
8.7632555e-01
0.0000000e+00
0.0000000e+00
6.8001968e-01
-9.1543354e-02
0.0000000e+00
9.5105654e-01
0.0000000e+00
0.0000000e+00
-1.9398343e-02
9.4916058e-01
0.0000000e+00
0.0000000e+00
9.4352102e-01
-3.8720168e-02
8.4869832e-01
-1.1978520e-01
-1.1944643e-01
7.5683314e-01
-5.7889268e-02
9.3415993e-01
0.0000000e+00
0.0000000e+00
-7.6830059e-02
9.2111403e-01
8.1771952e-01
-1.3323466e-01
0.0000000e+00
0.0000000e+00
9.0443444e-01
-9.5467895e-02
0.0000000e+00
0.0000000e+00
-1.2829003e-01
7.1607697e-01
0.0000000e+00
0.0000000e+00
0.0000000e+00
0.0000000e+00
8.8418651e-01
-1.1372938e-01
0.0000000e+00
0.0000000e+00
7.8350425e-01
-1.4616078e-01
8.6044919e-01
0.0000000e+00
-1.3154270e-01
0.0000000e+00
-1.3674611e-01
6.7289096e-01
0.0000000e+00
0.0000000e+00
0.0000000e+00
9.2977649e-01
-1.5851295e-01
7.4617505e-01
-2.3108674e-02
9.2792153e-01
8.3331454e-01
-1.4883791e-01
-4.6126161e-02
9.2240667e-01
0.0000000e+00
0.0000000e+00
0.0000000e+00
-6.8961643e-02
0.0000000e+00
0.0000000e+00
9.1325331e-01
0.0000000e+00
0.0000000e+00
-9.1525033e-02
9.0049720e-01
-1.4486344e-01
6.2754846e-01
-1.6554730e-01
8.0288661e-01
7.0564812e-01
0.0000000e+00
-1.7021054e-01
0.0000000e+00
0.0000000e+00
0.0000000e+00
-1.1372735e-01
8.8418823e-01
-1.3548103e-01
8.6439008e-01
7.6928055e-01
0.0000000e+00
0.0000000e+00
-1.8160582e-01
0.0000000e+00
0.0000000e+00
-1.8150578e-01
6.6330004e-01
-1.5670039e-01
8.4117973e-01
0.0000000e+00
0.0000000e+00
0.0000000e+00
0.0000000e+00
0.0000000e+00
0.0000000e+00
7.3261189e-01
-1.9695106e-01
9.0482706e-01
0.0000000e+00
-2.6727805e-02
-1.7730187e-01
9.0302056e-01
0.0000000e+00
0.0000000e+00
8.1464726e-01
8.9765227e-01
-5.3350110e-02
8.8874292e-01
-7.9761840e-02
6.1868817e-01
0.0000000e+00
-1.9221158e-01
0.0000000e+00
8.7632734e-01
-1.0585874e-01
0.0000000e+00
0.0000000e+00
-1.9720455e-01
7.8489506e-01
-2.1155250e-01
6.9313329e-01
-1.3153782e-01
8.6045384e-01
0.0000000e+00
0.0000000e+00
0.0000000e+00
0.0000000e+00
0.0000000e+00
-1.5669775e-01
8.4118438e-01
-2.1633060e-01
7.5203776e-01
0.0000000e+00
0.0000000e+00
0.0000000e+00
0.0000000e+00
6.5116674e-01
-2.2542906e-01
0.0000000e+00
-1.8123922e-01
8.1859398e-01
0.0000000e+00
0.0000000e+00
0.0000000e+00
-2.3460791e-01
7.1621293e-01
-2.0506538e-01
7.9277045e-01
8.7630665e-01
0.0000000e+00
8.7455595e-01
0.0000000e+00
0.0000000e+00
-3.0241482e-02
8.6935562e-01
-6.0363568e-02
6.0691667e-01
-2.3852268e-01
0.0000000e+00
0.0000000e+00
8.6072576e-01
-9.0247333e-02
-2.2808224e-01
-2.5196776e-01
8.4870005e-01
0.0000000e+00
0.0000000e+00
7.6381415e-01
6.7756826e-01
-1.1977477e-01
0.0000000e+00
0.0000000e+00
0.0000000e+00
0.0000000e+00
8.3332521e-01
-1.4882931e-01
0.0000000e+00
0.0000000e+00
-2.5019911e-01
7.3183852e-01
-2.5088954e-01
5.6044257e-01
8.1466132e-01
-1.7729618e-01
0.0000000e+00
0.0000000e+00
0.0000000e+00
0.0000000e+00
-2.6823092e-01
6.3598281e-01
7.9278117e-01
-2.0506290e-01
0.0000000e+00
-2.7132824e-01
6.9696814e-01
0.0000000e+00
0.0000000e+00
7.6776999e-01
-2.3201969e-01
0.0000000e+00
0.0000000e+00
0.0000000e+00
0.0000000e+00
8.4432793e-01
0.0000000e+00
-2.8383687e-01
-3.3635873e-02
8.4264004e-01
5.9273744e-01
0.0000000e+00
0.0000000e+00
8.3762848e-01
-6.7138925e-02
0.0000000e+00
0.0000000e+00
-1.0037685e-01
8.2931250e-01
-2.9137722e-01
6.5931779e-01
0.0000000e+00
0.0000000e+00
7.3972535e-01
-2.5805986e-01
8.1772447e-01
-1.3321838e-01
-1.6553378e-01
8.0290955e-01
0.0000000e+00
0.0000000e+00
5.4736203e-01
-2.9848608e-01
7.0875639e-01
-2.8307992e-01
0.0000000e+00
0.0000000e+00
7.8492564e-01
-1.9719538e-01
6.1911911e-01
-3.1030396e-01
0.0000000e+00
0.0000000e+00
0.0000000e+00
0.0000000e+00
0.0000000e+00
7.6384294e-01
0.0000000e+00
-2.2807795e-01
6.7498201e-01
-3.0697927e-01
0.0000000e+00
0.0000000e+00
0.0000000e+00
0.0000000e+00
-3.2808945e-01
5.7657444e-01
7.3974383e-01
-2.5805929e-01
0.0000000e+00
0.0000000e+00
0.0000000e+00
0.0000000e+00
8.0901700e-01
0.0000000e+00
-3.6897607e-02
8.0739892e-01
-7.3649496e-02
8.0259609e-01
-3.2966393e-01
6.3853920e-01
-1.1011051e-01
7.9462707e-01
-2.8702050e-01
7.1272242e-01
0.0000000e+00
0.0000000e+00
7.8352284e-01
-1.4613666e-01
5.3215253e-01
-3.4480518e-01
0.0000000e+00
0.0000000e+00
-1.8158557e-01
7.6932681e-01
0.0000000e+00
0.0000000e+00
0.0000000e+00
-3.1484628e-01
6.8288410e-01
5.9956688e-01
-3.5104075e-01
0.0000000e+00
0.0000000e+00
-2.1631713e-01
0.0000000e+00
7.5209439e-01
0.0000000e+00
0.0000000e+00
0.0000000e+00
-2.5019401e-01
7.3189300e-01
-3.4142536e-01
6.5034568e-01
-3.6030838e-01
4.8572364e-01
0.0000000e+00
0.0000000e+00
0.0000000e+00
-3.7088254e-01
5.5801362e-01
0.0000000e+00
-2.8308210e-01
7.0880181e-01
7.7051324e-01
0.0000000e+00
7.6897156e-01
-4.0013839e-02
-7.9869643e-02
0.0000000e+00
7.6439667e-01
0.0000000e+00
-3.6664984e-01
6.1523342e-01
0.0000000e+00
0.0000000e+00
0.0000000e+00
0.0000000e+00
-1.1941001e-01
7.5680631e-01
-3.1485093e-01
6.8291116e-01
7.4623007e-01
-1.5847872e-01
0.0000000e+00
0.0000000e+00
0.0000000e+00
0.0000000e+00
-3.8979062e-01
5.1503825e-01
-1.9692145e-01
7.3270923e-01
0.0000000e+00
0.0000000e+00
0.0000000e+00
0.0000000e+00
-3.9040557e-01
6.5432262e-01
5.7766891e-01
-3.4537414e-01
7.1629673e-01
-2.3458622e-01
0.0000000e+00
0.0000000e+00
-2.7132410e-01
6.9705689e-01
4.7003442e-01
-4.0721560e-01
-3.7452981e-01
6.2314832e-01
0.0000000e+00
0.0000000e+00
5.3787804e-01
-4.1264606e-01
0.0000000e+00
0.0000000e+00
0.0000000e+00
6.7506522e-01
0.0000000e+00
-3.0698970e-01
0.0000000e+00
0.0000000e+00
0.0000000e+00
7.2896862e-01
5.8950973e-01
0.0000000e+00
-4.0219995e-01
0.0000000e+00
0.0000000e+00
-4.2972289e-02
7.2750962e-01
7.2318095e-01
-8.5774861e-02
-3.4144166e-01
6.5040809e-01
4.2311490e-01
-1.2823868e-01
7.1599948e-01
-4.2311504e-01
-4.3310398e-01
4.9581054e-01
0.0000000e+00
0.0000000e+00
0.0000000e+00
0.0000000e+00
7.0599318e-01
-1.7019598e-01
-2.1148102e-01
-4.2827705e-01
5.5354667e-01
6.9320118e-01
6.2318254e-01
-3.7454319e-01
0.0000000e+00
0.0000000e+00
-2.5193065e-01
0.0000000e+00
0.0000000e+00
6.7767364e-01
0.0000000e+00
0.0000000e+00
-4.5242894e-01
4.5242897e-01
0.0000000e+00
0.0000000e+00
0.0000000e+00
0.0000000e+00
-4.0616253e-01
5.9349591e-01
-2.9138497e-01
6.5947151e-01
-4.5264435e-01
5.1539117e-01
0.0000000e+00
0.0000000e+00
0.0000000e+00
0.0000000e+00
-3.2968786e-01
6.3866645e-01
-4.3617401e-01
5.6146634e-01
0.0000000e+00
6.8454713e-01
-4.5761295e-02
0.0000000e+00
6.8317670e-01
0.0000000e+00
-4.7003448e-01
4.0721563e-01
-9.1341868e-02
6.7911154e-01
0.0000000e+00
0.0000000e+00
4.7525698e-01
-4.7525689e-01
-3.6668772e-01
6.1534023e-01
-1.3656171e-01
6.7236745e-01
0.0000000e+00
6.6297072e-01
-1.8124221e-01
0.0000000e+00
0.0000000e+00
5.2722138e-01
0.0000000e+00
-4.6445721e-01
0.0000000e+00
0.0000000e+00
0.0000000e+00
-4.0223795e-01
6.5095824e-01
-2.2520687e-01
5.8958507e-01
0.0000000e+00
0.0000000e+00
6.3637716e-01
-4.8572403e-01
3.6030829e-01
-2.6828200e-01
4.3310407e-01
-4.9581045e-01
0.0000000e+00
0.0000000e+00
0.0000000e+00
0.0000000e+00
5.6150287e-01
-4.3619764e-01
-4.9090332e-01
4.9090341e-01
6.1928469e-01
-3.1029734e-01
-3.5108683e-01
0.0000000e+00
5.9974831e-01
0.0000000e+00
-4.6843204e-01
0.0000000e+00
0.0000000e+00
5.3120530e-01
-5.1503825e-01
3.8979065e-01
0.0000000e+00
0.0000000e+00
0.0000000e+00
0.0000000e+00
-5.1539111e-01
0.0000000e+00
4.5264444e-01
6.3742399e-01
6.3614768e-01
-4.8369851e-02
6.3236225e-01
-9.6548699e-02
0.0000000e+00
-3.9048916e-01
0.0000000e+00
5.7784504e-01
6.2608230e-01
0.0000000e+00
0.0000000e+00
-1.4434627e-01
-1.9157381e-01
6.1733240e-01
0.0000000e+00
0.0000000e+00
-4.9881369e-01
4.9881378e-01
5.5366141e-01
-4.2834845e-01
6.0614693e-01
-2.3804480e-01
3.4480521e-01
-5.3215283e-01
4.1264611e-01
-5.3787798e-01
0.0000000e+00
0.0000000e+00
0.0000000e+00
0.0000000e+00
5.9256983e-01
-2.8357568e-01
5.2729338e-01
-4.6451494e-01
-5.2722126e-01
4.6445727e-01
0.0000000e+00
-3.2798657e-01
5.7665455e-01
0.0000000e+00
0.0000000e+00
0.0000000e+00
0.0000000e+00
0.0000000e+00
0.0000000e+00
3.7088260e-01
-5.5801362e-01
5.5846387e-01
-3.7110198e-01
-5.4736298e-01
2.9848605e-01
0.0000000e+00
0.0000000e+00
4.9884582e-01
-4.9884573e-01
-5.5354655e-01
4.2827711e-01
0.0000000e+00
0.0000000e+00
0.0000000e+00
0.0000000e+00
0.0000000e+00
5.8778524e-01
5.8660823e-01
-5.0787665e-02
5.3806961e-01
-4.1275159e-01
5.8311749e-01
-1.0137480e-01
-1.5156163e-01
5.7732654e-01
4.6843210e-01
-5.3120518e-01
5.6925809e-01
-2.0115001e-01
0.0000000e+00
0.0000000e+00
-5.7657468e-01
3.2808948e-01
-4.5277086e-01
5.1555252e-01
0.0000000e+00
-5.6044436e-01
2.5088948e-01
0.0000000e+00
3.9040563e-01
-2.4994411e-01
5.5894381e-01
-5.7766885e-01
0.0000000e+00
0.0000000e+00
-2.9775125e-01
5.4642433e-01
0.0000000e+00
0.0000000e+00
0.0000000e+00
4.3617406e-01
-5.6146622e-01
0.0000000e+00
4.9100178e-01
-4.9100170e-01
0.0000000e+00
-3.4438258e-01
5.3174895e-01
0.0000000e+00
2.8383687e-01
-5.9273821e-01
-5.9956682e-01
3.5104081e-01
5.1497561e-01
-3.8965401e-01
-5.2729326e-01
0.0000000e+00
0.0000000e+00
4.6451503e-01
0.0000000e+00
0.0000000e+00
-5.8950955e-01
4.0220001e-01
-4.3338674e-01
0.0000000e+00
5.3582680e-01
4.9617055e-01
0.0000000e+00
-5.3005192e-02
5.3475380e-01
0.0000000e+00
0.0000000e+00
-1.0580111e-01
0.0000000e+00
0.0000000e+00
5.3157157e-01
0.0000000e+00
4.3619770e-01
-5.6150275e-01
0.0000000e+00
-1.5817930e-01
5.2629250e-01
-6.1911917e-01
3.1030399e-01
2.3852268e-01
-6.0691810e-01
-2.0993297e-01
5.1893741e-01
3.6664987e-01
-6.1523324e-01
0.0000000e+00
-4.7540814e-01
0.0000000e+00
4.7540823e-01
-2.6085776e-01
5.0953507e-01
0.0000000e+00
0.0000000e+00
0.0000000e+00
0.0000000e+00
-3.1075263e-01
-5.9349573e-01
4.0616259e-01
4.9812254e-01
4.5277092e-01
-5.1555240e-01
-6.3598317e-01
2.6823092e-01
4.8474485e-01
-3.5942057e-01
0.0000000e+00
0.0000000e+00
-6.3853902e-01
3.2966399e-01
1.9221157e-01
-6.1868787e-01