# vtk DataFile Version 4.0
vtk output
ASCII
DATASET UNSTRUCTURED_GRID
POINTS 2601 float
0.0000000e+00 0.0000000e+00 0.0000000e+00 
0.0000000e+00 2.0000000e-02 0.0000000e+00 
2.0000000e-02 0.0000000e+00 0.0000000e+00 
2.0000000e-02 2.0000000e-02 0.0000000e+00 
3.9999999e-02 0.0000000e+00 0.0000000e+00 
0.0000000e+00 3.9999999e-02 0.0000000e+00 
3.9999999e-02 2.0000000e-02 0.0000000e+00 
2.0000000e-02 3.9999999e-02 0.0000000e+00 
3.9999999e-02 3.9999999e-02 0.0000000e+00 
5.9999999e-02 0.0000000e+00 0.0000000e+00 
0.0000000e+00 5.9999999e-02 0.0000000e+00 
5.9999999e-02 2.0000000e-02 0.0000000e+00 
2.0000000e-02 5.9999999e-02 0.0000000e+00 
3.9999999e-02 5.9999999e-02 0.0000000e+00 
5.9999999e-02 3.9999999e-02 0.0000000e+00 
7.9999998e-02 0.0000000e+00 0.0000000e+00 
0.0000000e+00 7.9999998e-02 0.0000000e+00 
7.9999998e-02 2.0000000e-02 0.0000000e+00 
2.0000000e-02 7.9999998e-02 0.0000000e+00 
5.9999999e-02 5.9999999e-02 0.0000000e+00 
7.9999998e-02 3.9999999e-02 0.0000000e+00 
3.9999999e-02 7.9999998e-02 0.0000000e+00 
5.9999999e-02 7.9999998e-02 0.0000000e+00 
7.9999998e-02 5.9999999e-02 0.0000000e+00 
1.0000000e-01 0.0000000e+00 0.0000000e+00 
0.0000000e+00 1.0000000e-01 0.0000000e+00 
1.0000000e-01 2.0000000e-02 0.0000000e+00 
2.0000000e-02 1.0000000e-01 0.0000000e+00 
3.9999999e-02 1.0000000e-01 0.0000000e+00 
1.0000000e-01 3.9999999e-02 0.0000000e+00 
7.9999998e-02 7.9999998e-02 0.0000000e+00 
1.0000000e-01 5.9999999e-02 0.0000000e+00 
5.9999999e-02 1.0000000e-01 0.0000000e+00 
1.2000000e-01 0.0000000e+00 0.0000000e+00 
0.0000000e+00 1.2000000e-01 0.0000000e+00 
1.2000000e-01 2.0000000e-02 0.0000000e+00 
2.0000000e-02 1.2000000e-01 0.0000000e+00 
1.2000000e-01 3.9999999e-02 0.0000000e+00 
3.9999999e-02 1.2000000e-01 0.0000000e+00 
1.0000000e-01 7.9999998e-02 0.0000000e+00 
7.9999998e-02 1.0000000e-01 0.0000000e+00 
1.2000000e-01 5.9999999e-02 0.0000000e+00 
5.9999999e-02 1.2000000e-01 0.0000000e+00 
0.0000000e+00 1.4000000e-01 0.0000000e+00 
1.4000000e-01 0.0000000e+00 0.0000000e+00 
1.0000000e-01 1.0000000e-01 0.0000000e+00 
2.0000000e-02 1.4000000e-01 0.0000000e+00 
1.4000000e-01 2.0000000e-02 0.0000000e+00 
1.2000000e-01 7.9999998e-02 0.0000000e+00 
7.9999998e-02 1.2000000e-01 0.0000000e+00 
3.9999999e-02 1.4000000e-01 0.0000000e+00 
1.4000000e-01 3.9999999e-02 0.0000000e+00 
1.4000000e-01 5.9999999e-02 0.0000000e+00 
5.9999999e-02 1.4000000e-01 0.0000000e+00 
1.2000000e-01 1.0000000e-01 0.0000000e+00 
1.0000000e-01 1.2000000e-01 0.0000000e+00 
1.6000000e-01 0.0000000e+00 0.0000000e+00 
0.0000000e+00 1.6000000e-01 0.0000000e+00 
1.6000000e-01 2.0000000e-02 0.0000000e+00 
7.9999998e-02 1.4000000e-01 0.0000000e+00 
2.0000000e-02 1.6000000e-01 0.0000000e+00 
1.4000000e-01 7.9999998e-02 0.0000000e+00 
1.6000000e-01 3.9999999e-02 0.0000000e+00 
3.9999999e-02 1.6000000e-01 0.0000000e+00 
1.2000000e-01 1.2000000e-01 0.0000000e+00 
1.6000000e-01 5.9999999e-02 0.0000000e+00 
5.9999999e-02 1.6000000e-01 0.0000000e+00 
1.0000000e-01 1.4000000e-01 0.0000000e+00 
1.4000000e-01 1.0000000e-01 0.0000000e+00 
1.6000000e-01 7.9999998e-02 0.0000000e+00 
7.9999998e-02 1.6000000e-01 0.0000000e+00 
0.0000000e+00 1.8000001e-01 0.0000000e+00 
1.8000001e-01 0.0000000e+00 0.0000000e+00 
1.8000001e-01 2.0000000e-02 0.0000000e+00 
2.0000000e-02 1.8000001e-01 0.0000000e+00 
3.9999999e-02 1.8000001e-01 0.0000000e+00 
1.8000001e-01 3.9999999e-02 0.0000000e+00 
1.2000000e-01 1.4000000e-01 0.0000000e+00 
1.4000000e-01 1.2000000e-01 0.0000000e+00 
1.0000000e-01 1.6000000e-01 0.0000000e+00 
1.6000000e-01 1.0000000e-01 0.0000000e+00 
1.8000001e-01 5.9999999e-02 0.0000000e+00 
5.9999999e-02 1.8000001e-01 0.0000000e+00 
7.9999998e-02 1.8000001e-01 0.0000000e+00 
1.8000001e-01 7.9999998e-02 0.0000000e+00 
1.4000000e-01 1.4000000e-01 0.0000000e+00 
1.2000000e-01 1.6000000e-01 0.0000000e+00 
1.6000000e-01 1.2000000e-01 0.0000000e+00 
0.0000000e+00 2.0000000e-01 0.0000000e+00 
2.0000000e-01 0.0000000e+00 0.0000000e+00 
2.0000000e-01 2.0000000e-02 0.0000000e+00 
2.0000000e-02 2.0000000e-01 0.0000000e+00 
2.0000000e-01 3.9999999e-02 0.0000000e+00 
3.9999999e-02 2.0000000e-01 0.0000000e+00 
1.0000000e-01 1.8000001e-01 0.0000000e+00 
1.8000001e-01 1.0000000e-01 0.0000000e+00 
2.0000000e-01 5.9999999e-02 0.0000000e+00 
5.9999999e-02 2.0000000e-01 0.0000000e+00 
1.4000000e-01 1.6000000e-01 0.0000000e+00 
1.6000000e-01 1.4000000e-01 0.0000000e+00 
2.0000000e-01 7.9999998e-02 0.0000000e+00 
7.9999998e-02 2.0000000e-01 0.0000000e+00 
1.8000001e-01 1.2000000e-01 0.0000000e+00 
1.2000000e-01 1.8000001e-01 0.0000000e+00 
2.2000000e-01 0.0000000e+00 0.0000000e+00 
0.0000000e+00 2.2000000e-01 0.0000000e+00 
2.2000000e-01 2.0000000e-02 0.0000000e+00 
2.0000000e-02 2.2000000e-01 0.0000000e+00 
2.2000000e-01 3.9999999e-02 0.0000000e+00 
3.9999999e-02 2.2000000e-01 0.0000000e+00 
1.0000000e-01 2.0000000e-01 0.0000000e+00 
2.0000000e-01 1.0000000e-01 0.0000000e+00 
1.6000000e-01 1.6000000e-01 0.0000000e+00 
2.2000000e-01 5.9999999e-02 0.0000000e+00 
5.9999999e-02 2.2000000e-01 0.0000000e+00 
1.8000001e-01 1.4000000e-01 0.0000000e+00 
1.4000000e-01 1.8000001e-01 0.0000000e+00 
2.0000000e-01 1.2000000e-01 0.0000000e+00 
1.2000000e-01 2.0000000e-01 0.0000000e+00 
7.9999998e-02 2.2000000e-01 0.0000000e+00 
2.2000000e-01 7.9999998e-02 0.0000000e+00 
2.3999999e-01 0.0000000e+00 0.0000000e+00 
0.0000000e+00 2.3999999e-01 0.0000000e+00 
2.3999999e-01 2.0000000e-02 0.0000000e+00 
1.8000001e-01 1.6000000e-01 0.0000000e+00 
1.6000000e-01 1.8000001e-01 0.0000000e+00 
2.0000000e-02 2.3999999e-01 0.0000000e+00 
2.2000000e-01 1.0000000e-01 0.0000000e+00 
1.0000000e-01 2.2000000e-01 0.0000000e+00 
3.9999999e-02 2.3999999e-01 0.0000000e+00 
2.3999999e-01 3.9999999e-02 0.0000000e+00 
1.4000000e-01 2.0000000e-01 0.0000000e+00 
2.0000000e-01 1.4000000e-01 0.0000000e+00 
2.3999999e-01 5.9999999e-02 0.0000000e+00 
5.9999999e-02 2.3999999e-01 0.0000000e+00 
2.2000000e-01 1.2000000e-01 0.0000000e+00 
1.2000000e-01 2.2000000e-01 0.0000000e+00 
7.9999998e-02 2.3999999e-01 0.0000000e+00 
2.3999999e-01 7.9999998e-02 0.0000000e+00 
1.8000001e-01 1.8000001e-01 0.0000000e+00 
2.0000000e-01 1.6000000e-01 0.0000000e+00 
1.6000000e-01 2.0000000e-01 0.0000000e+00 
1.0000000e-01 2.3999999e-01 0.0000000e+00 
2.3999999e-01 1.0000000e-01 0.0000000e+00 
0.0000000e+00 2.5999999e-01 0.0000000e+00 
2.5999999e-01 0.0000000e+00 0.0000000e+00 
1.4000000e-01 2.2000000e-01 0.0000000e+00 
2.2000000e-01 1.4000000e-01 0.0000000e+00 
2.0000000e-02 2.5999999e-01 0.0000000e+00 
2.5999999e-01 2.0000000e-02 0.0000000e+00 
3.9999999e-02 2.5999999e-01 0.0000000e+00 
2.5999999e-01 3.9999999e-02 0.0000000e+00 
5.9999999e-02 2.5999999e-01 0.0000000e+00 
2.5999999e-01 5.9999999e-02 0.0000000e+00 
2.3999999e-01 1.2000000e-01 0.0000000e+00 
1.2000000e-01 2.3999999e-01 0.0000000e+00 
1.8000001e-01 2.0000000e-01 0.0000000e+00 
2.0000000e-01 1.8000001e-01 0.0000000e+00 
2.2000000e-01 1.6000000e-01 0.0000000e+00 
7.9999998e-02 2.5999999e-01 0.0000000e+00 
2.5999999e-01 7.9999998e-02 0.0000000e+00 
1.6000000e-01 2.2000000e-01 0.0000000e+00 
2.3999999e-01 1.4000000e-01 0.0000000e+00 
1.4000000e-01 2.3999999e-01 0.0000000e+00 
1.0000000e-01 2.5999999e-01 0.0000000e+00 
2.5999999e-01 1.0000000e-01 0.0000000e+00 
2.8000000e-01 0.0000000e+00 0.0000000e+00 
0.0000000e+00 2.8000000e-01 0.0000000e+00 
2.0000000e-02 2.8000000e-01 0.0000000e+00 
2.8000000e-01 2.0000000e-02 0.0000000e+00 
2.8000000e-01 3.9999999e-02 0.0000000e+00 
3.9999999e-02 2.8000000e-01 0.0000000e+00 
2.0000000e-01 2.0000000e-01 0.0000000e+00 
1.8000001e-01 2.2000000e-01 0.0000000e+00 
2.2000000e-01 1.8000001e-01 0.0000000e+00 
2.8000000e-01 5.9999999e-02 0.0000000e+00 
2.5999999e-01 1.2000000e-01 0.0000000e+00 
1.2000000e-01 2.5999999e-01 0.0000000e+00 
5.9999999e-02 2.8000000e-01 0.0000000e+00 
2.3999999e-01 1.6000000e-01 0.0000000e+00 
1.6000000e-01 2.3999999e-01 0.0000000e+00 
7.9999998e-02 2.8000000e-01 0.0000000e+00 
2.8000000e-01 7.9999998e-02 0.0000000e+00 
1.4000000e-01 2.5999999e-01 0.0000000e+00 
2.5999999e-01 1.4000000e-01 0.0000000e+00 
2.2000000e-01 2.0000000e-01 0.0000000e+00 
1.0000000e-01 2.8000000e-01 0.0000000e+00 
2.0000000e-01 2.2000000e-01 0.0000000e+00 
2.8000000e-01 1.0000000e-01 0.0000000e+00 
1.8000001e-01 2.3999999e-01 0.0000000e+00 
3.0000001e-01 0.0000000e+00 0.0000000e+00 
2.3999999e-01 1.8000001e-01 0.0000000e+00 
0.0000000e+00 3.0000001e-01 0.0000000e+00 
3.0000001e-01 2.0000000e-02 0.0000000e+00 
2.0000000e-02 3.0000001e-01 0.0000000e+00 
3.9999999e-02 3.0000001e-01 0.0000000e+00 
3.0000001e-01 3.9999999e-02 0.0000000e+00 
1.2000000e-01 2.8000000e-01 0.0000000e+00 
2.8000000e-01 1.2000000e-01 0.0000000e+00 
1.6000000e-01 2.5999999e-01 0.0000000e+00 
2.5999999e-01 1.6000000e-01 0.0000000e+00 
5.9999999e-02 3.0000001e-01 0.0000000e+00 
3.0000001e-01 5.9999999e-02 0.0000000e+00 
7.9999998e-02 3.0000001e-01 0.0000000e+00 
3.0000001e-01 7.9999998e-02 0.0000000e+00 
2.2000000e-01 2.2000000e-01 0.0000000e+00 
2.3999999e-01 2.0000000e-01 0.0000000e+00 
2.0000000e-01 2.3999999e-01 0.0000000e+00 
1.4000000e-01 2.8000000e-01 0.0000000e+00 
2.8000000e-01 1.4000000e-01 0.0000000e+00 
1.0000000e-01 3.0000001e-01 0.0000000e+00 
2.5999999e-01 1.8000001e-01 0.0000000e+00 
1.8000001e-01 2.5999999e-01 0.0000000e+00 
3.0000001e-01 1.0000000e-01 0.0000000e+00 
0.0000000e+00 3.1999999e-01 0.0000000e+00 
3.1999999e-01 0.0000000e+00 0.0000000e+00 
2.0000000e-02 3.1999999e-01 0.0000000e+00 
3.1999999e-01 2.0000000e-02 0.0000000e+00 
3.9999999e-02 3.1999999e-01 0.0000000e+00 
1.6000000e-01 2.8000000e-01 0.0000000e+00 
3.1999999e-01 3.9999999e-02 0.0000000e+00 
2.8000000e-01 1.6000000e-01 0.0000000e+00 
1.2000000e-01 3.0000001e-01 0.0000000e+00 
3.0000001e-01 1.2000000e-01 0.0000000e+00 
2.2000000e-01 2.3999999e-01 0.0000000e+00 
5.9999999e-02 3.1999999e-01 0.0000000e+00 
2.3999999e-01 2.2000000e-01 0.0000000e+00 
3.1999999e-01 5.9999999e-02 0.0000000e+00 
2.0000000e-01 2.5999999e-01 0.0000000e+00 
2.5999999e-01 2.0000000e-01 0.0000000e+00 
[...]
POINT_DATA 2601
FIELD FieldData 1
TEMPERATURE 1 2601  float
0.0000000e+00
0.0000000e+00
5.8010876e-02
5.8062080e-02
1.1579281e-01
0.0000000e+00
1.1589676e-01
5.7916626e-02
1.1560776e-01
1.7311776e-01
0.0000000e+00
1.7327549e-01
5.7477336e-02
1.1473221e-01
1.7284538e-01
2.2975950e-01
0.0000000e+00
2.2997154e-01
5.6769662e-02
1.7153826e-01
2.2940317e-01
1.1332092e-01
1.6943008e-01
2.2767068e-01
2.8549448e-01
0.0000000e+00
2.8576094e-01
5.5806164e-02
1.1139896e-01
2.8505743e-01
2.2487494e-01
2.8290725e-01
1.6655837e-01
3.4010273e-01
0.0000000e+00
3.4042326e-01
5.4599389e-02
3.3958802e-01
1.0899136e-01
2.7943578e-01
2.2106574e-01
3.3702928e-01
1.6296053e-01
0.0000000e+00
3.9336878e-01
2.7470478e-01
5.3160459e-02
3.9374256e-01
3.3289626e-01
2.1629269e-01
1.0612033e-01
3.9277932e-01
3.8982242e-01
1.5866971e-01
3.2726255e-01
2.6877594e-01
4.4508237e-01
0.0000000e+00
4.4550815e-01
2.1059978e-01
5.1499747e-02
3.8504443e-01
4.4442096e-01
1.0280656e-01
3.2020152e-01
4.4107771e-01
1.5371688e-01
2.6170382e-01
3.7853029e-01
4.3567351e-01
2.0402806e-01
0.0000000e+00
4.9503940e-01
4.9551561e-01
4.9627256e-02
9.9070005e-02
4.9430871e-01
3.1177816e-01
3.7036487e-01
2.5353938e-01
4.2830446e-01
4.9059215e-01
1.4813182e-01
1.9661702e-01
4.8458278e-01
3.6062309e-01
3.0205303e-01
4.1906628e-01
0.0000000e+00
5.4304278e-01
5.4356736e-01
4.7552880e-02
5.4224527e-01
9.4930403e-02
2.4433169e-01
4.7638726e-01
5.3816974e-01
1.4194404e-01
3.4937492e-01
4.0804359e-01
5.3157836e-01
1.8840583e-01
4.6611184e-01
2.9108456e-01
5.8890295e-01
0.0000000e+00
5.8947361e-01
4.5286618e-02
5.8804125e-01
9.0407714e-02
2.3412934e-01
5.2258778e-01
3.9531544e-01
5.8362222e-01
1.3518338e-01
4.5385030e-01
3.3668780e-01
5.1131415e-01
2.7893052e-01
1.7943406e-01
5.7647389e-01
6.3243908e-01
0.0000000e+00
6.3305300e-01
4.3969017e-01
3.8095775e-01
4.2838730e-02
5.6672239e-01
2.2298151e-01
8.5522413e-02
6.3151550e-01
3.2262847e-01
4.9785998e-01
6.2676966e-01
1.2788045e-01
5.5449307e-01
2.6564956e-01
1.6974238e-01
6.1909151e-01
4.2371559e-01
4.8232070e-01
3.6504593e-01
2.1093877e-01
6.0861582e-01
0.0000000e+00
6.7347920e-01
3.0726466e-01
5.3989649e-01
4.0219825e-02
6.7413354e-01
8.0295682e-02
6.7249620e-01
1.2006693e-01
6.6744137e-01
5.9547657e-01
2.5130185e-01
4.0601015e-01
4.6478805e-01
5.2303529e-01
1.5937285e-01
6.5926224e-01
3.4765655e-01
5.7979143e-01
2.9066607e-01
1.9805343e-01
6.4810169e-01
7.1186143e-01
0.0000000e+00
3.7440926e-02
7.1255291e-01
7.1082145e-01
7.4749529e-02
4.4535309e-01
3.8665861e-01
5.0400800e-01
7.0547652e-01
6.3410127e-01
2.3594993e-01
1.1177576e-01
5.6166959e-01
3.2886845e-01
1.4836927e-01
6.9682711e-01
2.7290523e-01
6.1738503e-01
4.8291245e-01
1.8438005e-01
4.2410839e-01
6.8502331e-01
3.6574882e-01
7.4743426e-01
5.4121536e-01
0.0000000e+00
7.4815947e-01
3.4513496e-02
6.8906859e-02
7.4633992e-01
2.1965896e-01
6.7021340e-01
3.0876398e-01
5.9806752e-01
1.0304122e-01
7.4072474e-01
1.3677718e-01
7.3163754e-01
4.5984802e-01
5.1853222e-01
4.0114999e-01
2.5405782e-01
6.5252680e-01
1.6997540e-01
5.7625794e-01
3.4337255e-01
7.1923441e-01
0.0000000e+00
7.8005731e-01
3.1449456e-02
7.8081274e-01
6.2791459e-02
2.8742930e-01
7.7891141e-01
6.3208228e-01
2.0249690e-01
7.0366955e-01
4.3491822e-01
9.3898922e-02
4.9372512e-01
7.7304697e-01
3.7657899e-01
5.5206370e-01
1.2464400e-01
7.6355600e-01
2.3420298e-01
6.8507648e-01
6.0899234e-01
3.1962660e-01
1.5489860e-01
7.5059986e-01
4.6690348e-01
2.6495489e-01
6.6357696e-01
0.0000000e+00
8.0960178e-01
2.8261162e-02
5.2559358e-01
4.0823248e-01
8.1038386e-01
1.8453449e-01
7.3433733e-01
5.6428030e-02
8.0840749e-01
5.8336663e-01
3.5050246e-01
8.4385850e-02
8.0231589e-01
1.1201890e-01
7.9245692e-01
7.1490484e-01
2.1342319e-01
2.9461291e-01
6.3928509e-01
4.9696219e-01
4.3818521e-01
1.3921091e-01
7.7899623e-01
3.7990925e-01
5.5531657e-01
2.4143516e-01
6.9242573e-01
8.3595121e-01
0.0000000e+00
8.3675629e-01
2.4961393e-02
3.2303509e-01
1.6584514e-01
6.1231148e-01
7.6209611e-01
8.3471209e-01
4.9842089e-02
8.2841641e-01
7.4540190e-02
2.6843861e-01
6.6701412e-01
1.9180396e-01
4.6628806e-01
7.4189454e-01
9.8952666e-02
8.1822693e-01
4.0769467e-01
5.2495390e-01
3.5007375e-01
5.8276421e-01
8.0431265e-01
1.2297569e-01
7.1851480e-01
2.1696800e-01
6.3877833e-01
2.9429686e-01
7.8683788e-01
1.4650463e-01
8.5900146e-01
0.0000000e+00
8.5982615e-01
2.1563308e-02
4.3059912e-02
8.5772175e-01
4.9241313e-01
4.3371806e-01
5.5076206e-01
3.7558159e-01
8.5124630e-01
2.4121447e-01
6.4401269e-02
6.9206893e-01
7.6594108e-01
1.6943352e-01
3.1886744e-01
8.4076566e-01
6.0782623e-01
8.5497580e-02
1.0625806e-01
8.2645100e-01
7.4174333e-01
1.9165409e-01
2.6441458e-01
6.6266173e-01
4.5779082e-01
5.1639003e-01
3.9936945e-01
1.2659083e-01
8.0846792e-01
3.4198120e-01
8.7866163e-01
0.0000000e+00
5.7424837e-01
8.7950259e-01
1.8080395e-02
8.7734628e-01
3.6108434e-02
7.1435237e-01
2.1305390e-01
8.7071645e-01
5.4009404e-02
1.4640236e-01
7.8695357e-01
6.3039380e-01
2.8642827e-01
7.1707226e-02
8.5998565e-01
4.2138970e-01
4.7992063e-01
2.3351507e-01
6.8386817e-01
7.6202524e-01
1.6559632e-01
5.3823018e-01
3.6352342e-01
8.9124732e-02
8.4532666e-01
3.0710667e-01
5.9536701e-01
8.2690513e-01
1.0618349e-01
8.9485413e-01
0.0000000e+00
8.9570826e-01
1.4526429e-02
1.8407185e-01
7.3378247e-01
8.9350885e-01
2.9015154e-02
2.5290236e-01
6.5037280e-01
1.2280317e-01
8.0485612e-01
8.8675123e-01
4.4112286e-01
4.3405689e-02
3.8303447e-01
4.9955457e-01
8.7581313e-01
5.7636172e-02
5.5759615e-01
3.2619381e-01
7.0231396e-01
2.0172115e-01
1.3889997e-01
7.7929020e-01
7.1643628e-02
8.6086833e-01
6.1404222e-01
2.7110961e-01
8.4208214e-01
8.5363805e-02
1.5438604e-01
4.0147477e-01
4.5983967e-01
7.5030029e-01
2.1843398e-01
6.6770208e-01
0.0000000e+00
9.0751511e-01
1.0915412e-02
9.0837955e-01
5.1809359e-01
3.4411177e-01
9.0614635e-01
2.1808002e-02
8.1958658e-01
9.8730363e-02
8.9928842e-01
3.2631867e-02
2.8782368e-01
5.7467854e-01
4.3339767e-02
8.8818759e-01
1.6916068e-01
7.1793538e-01
1.1167348e-01
7.9348731e-01
2.3403481e-01
6.2995303e-01
8.7301797e-01
5.3883478e-02
4.1789120e-01
3.6038947e-01
4.7637531e-01
8.5394454e-01
5.3409642e-01
3.0369675e-01
6.4213745e-02
6.8235570e-01
1.8314819e-01
7.6385534e-01
1.2411525e-01
9.1659445e-01
0.0000000e+00
7.2615263e-03
2.4887541e-01
5.9024990e-01
9.1746664e-01
8.3109707e-01
7.4279577e-02
1.4515256e-02
9.1520941e-01
2.1730117e-02
9.0827966e-01
1.3597730e-01
7.3076171e-01
6.4327157e-01
1.9614230e-01
8.9706188e-01
3.7520003e-01
2.8873812e-02
4.3324354e-01
8.0457604e-01
8.4026344e-02
4.9129093e-01
3.1825578e-01
8.8173050e-01
3.5913315e-02
2.6259872e-01
5.4817498e-01
1.4712307e-01
6.9402999e-01
4.2815130e-02
9.3391292e-02
7.7444899e-01
8.6244988e-01
6.0280222e-01
2.0857853e-01
0.0000000e+00
9.2205650e-01
9.2293400e-01
3.5790943e-03
4.9545169e-02
8.3934838e-01
3.8861805e-01
9.2066294e-01
7.1654581e-03
3.3150208e-01
4.4683486e-01
1.0229611e-01
7.4075872e-01
9.1369039e-01
6.5493298e-01
1.5781988e-01
1.0742989e-02
2.7524224e-01
5.0436985e-01
1.4294463e-02
9.0240252e-01
8.1252462e-01
5.6067873e-02
5.6012625e-01
2.2054024e-01
8.8697356e-01
1.7802218e-02
7.0338106e-01
1.1060648e-01
6.1336774e-01
1.6805920e-01
6.2342465e-02
7.8204364e-01
8.6756754e-01
2.1248816e-02
0.0000000e+00
0.0000000e+00
0.0000000e+00
0.0000000e+00
2.4617912e-02
0.0000000e+00
9.2387950e-01
8.4431142e-01
5.1577246e-01
2.3176481e-01
-1.1744798e-04
9.2476016e-01
6.6349381e-01
1.1835482e-01
9.2248565e-01
-2.1261636e-04
6.8315335e-02
7.4795824e-01
-2.8662820e-04
9.1549993e-01
5.6999272e-01
1.7787275e-01
8.1730205e-01
2.7895769e-02
-3.4168322e-04
9.0418941e-01
0.0000000e+00
0.0000000e+00
7.3869795e-02
8.8872826e-01
-3.8029457e-04
0.0000000e+00
7.1015692e-01
1.2691292e-01
6.2177819e-01
0.0000000e+00
0.0000000e+00
7.8660423e-01
3.1073848e-02
8.6927974e-01
-4.0442182e-04
0.0000000e+00
0.0000000e+00
7.8936547e-02
6.6992122e-01
-4.1403502e-04
8.4596944e-01
7.5227684e-01
3.4151971e-02
9.2205650e-01
0.0000000e+00
9.2293793e-01
-3.8135839e-03
-7.5900098e-03
5.7822067e-01
1.3525431e-01
9.2067057e-01
0.0000000e+00
-1.1315493e-02
9.1370142e-01
0.0000000e+00
0.0000000e+00
-4.0362217e-04
8.1889123e-01
0.0000000e+00
9.0241629e-01
-1.4977366e-02
3.7109219e-02
7.1425354e-01
0.0000000e+00
0.0000000e+00
6.2783647e-01
8.5207485e-02
-1.8563386e-02
8.8698888e-01
7.8810292e-01
-3.5168073e-04
0.0000000e+00
0.0000000e+00
8.6758208e-01
-2.2061104e-02
6.7403620e-01
3.9792299e-02
0.0000000e+00
0.0000000e+00
0.0000000e+00
0.0000000e+00
-2.5457229e-02
8.4432054e-01
-1.8292401e-04
7.5364333e-01
0.0000000e+00
0.0000000e+00
9.1659445e-01
0.0000000e+00
-7.4947649e-03
9.1747463e-01
0.0000000e+00
9.1522491e-01
-1.4937675e-02
9.0830213e-01
-2.2300135e-02
0.0000000e+00
0.0000000e+00
8.1729621e-01
-2.8737182e-02
8.9709020e-01
4.3694641e-02
6.3174194e-01
-2.9554738e-02
7.1537131e-01
3.7880646e-04
8.8176280e-01
-3.6674656e-02
0.0000000e+00
0.0000000e+00
7.8656220e-01
-3.1885743e-02
0.0000000e+00
0.0000000e+00
8.6248261e-01
0.0000000e+00
0.0000000e+00
-4.3633237e-02
2.4627389e-03
6.7444998e-01
0.0000000e+00
0.0000000e+00
0.0000000e+00
0.0000000e+00
7.5215226e-01
-3.4899086e-02
8.3937478e-01
-5.0404042e-02
0.0000000e+00
9.0751511e-01
9.0839159e-01
-1.1146486e-02
0.0000000e+00
0.0000000e+00
-2.2226639e-02
9.0616983e-01
8.9932275e-01
8.1253105e-01
-3.3197183e-02
-5.6961883e-02
6.3195986e-01
4.0364391e-03
-3.7837420e-02
7.1393359e-01
-4.4016037e-02
0.0000000e+00
8.8823158e-01
0.0000000e+00
0.0000000e+00
0.0000000e+00
0.0000000e+00
0.0000000e+00
0.0000000e+00
-5.4641750e-02
8.7306976e-01
7.8200370e-01
-6.3287489e-02
0.0000000e+00
0.0000000e+00
-4.1272331e-02
6.7324835e-01
8.5400069e-01
-6.5033071e-02
0.0000000e+00
0.0000000e+00
7.4781001e-01
-6.9383830e-02
0.0000000e+00
0.0000000e+00
-7.5148731e-02
8.3115160e-01
0.0000000e+00
8.9485413e-01
0.0000000e+00
0.0000000e+00
8.9572448e-01
-1.4754358e-02
-2.9428184e-02
0.0000000e+00
0.0000000e+00
-4.2375997e-02
6.3057387e-01
8.9354062e-01
8.0461937e-01
-8.4948078e-02
7.0978177e-01
0.0000000e+00
0.0000000e+00
8.8679796e-01
-4.3963678e-02
-7.5306125e-02
0.0000000e+00
0.0000000e+00
-5.8304228e-02
8.7587386e-01
-9.4390981e-02
0.0000000e+00
7.7445978e-01
0.0000000e+00
-7.2393760e-02
8.6094159e-01
0.0000000e+00
0.0000000e+00
6.6902167e-01
-8.1435665e-02
-8.6176120e-02
8.4216571e-01
0.0000000e+00
0.0000000e+00
0.0000000e+00
7.4071926e-01
0.0000000e+00
-1.0344918e-01
0.0000000e+00
-9.9594451e-02
8.1967729e-01
0.0000000e+00
0.0000000e+00
6.2624049e-01
-8.5161857e-02
0.0000000e+00
8.7866163e-01
0.0000000e+00
0.0000000e+00
-1.8304175e-02
8.7952298e-01
0.0000000e+00
0.0000000e+00
8.7738639e-01
-3.6513966e-02
-1.1258995e-01
-1.1206148e-01
7.0317495e-01
7.9357982e-01
8.7077582e-01
-5.4557301e-02
0.0000000e+00
0.0000000e+00
-7.2363272e-02
8.6006361e-01
7.6395452e-01
-1.2510060e-01
0.0000000e+00
0.0000000e+00
0.0000000e+00
-8.9861415e-02
0.0000000e+00
8.4542233e-01
-1.2044387e-01
6.6303146e-01
0.0000000e+00
0.0000000e+00
0.0000000e+00
0.0000000e+00
8.2701761e-01
-1.0698095e-01
0.0000000e+00
0.0000000e+00
7.3083293e-01
-1.3704959e-01
-1.2364971e-01
0.0000000e+00
0.0000000e+00
8.0498427e-01
-1.2678593e-01
6.2037855e-01
0.0000000e+00
0.0000000e+00
8.5900146e-01
0.0000000e+00
-2.1781957e-02
6.9435567e-01
-1.4835489e-01
8.5985065e-01
7.7943468e-01
-1.3979247e-01
0.0000000e+00
0.0000000e+00
-4.3456092e-02
8.5777009e-01
0.0000000e+00
0.0000000e+00
0.0000000e+00
8.5131812e-01
-6.4936429e-02
0.0000000e+00
0.0000000e+00
8.4086061e-01
-8.6138114e-02
0.0000000e+00
0.0000000e+00
7.5046015e-01
-1.5532754e-01
0.0000000e+00
0.0000000e+00
6.5422457e-01
-1.5874645e-01
0.0000000e+00
0.0000000e+00
-1.0697674e-01
8.2656890e-01
-1.2736750e-01
8.0860889e-01
0.0000000e+00
7.1813816e-01
0.0000000e+00
-1.7015994e-01
0.0000000e+00
0.0000000e+00
-1.6819251e-01
6.1267471e-01
7.8711826e-01
-1.4722407e-01
0.0000000e+00
0.0000000e+00
0.0000000e+00
0.0000000e+00
0.0000000e+00
0.0000000e+00
6.8253726e-01
-1.8417634e-01
0.0000000e+00
8.3595121e-01
-2.5173977e-02
0.0000000e+00
0.0000000e+00
7.6221555e-01
-1.6645679e-01
8.3678478e-01
-5.0227195e-02
8.3476841e-01
-7.5060174e-02
8.2850027e-01
0.0000000e+00
0.0000000e+00
5.6835723e-01
-1.7657390e-01
-9.9574611e-02
0.0000000e+00
0.0000000e+00
8.1833833e-01
-1.8496963e-01
7.3400396e-01
6.4364445e-01
-1.9717672e-01
-1.2367271e-01
8.0445182e-01
0.0000000e+00
0.0000000e+00
0.0000000e+00
0.0000000e+00
0.0000000e+00
7.8700560e-01
-1.4725640e-01
-2.0265663e-01
7.0257670e-01
0.0000000e+00
0.0000000e+00
0.0000000e+00
0.0000000e+00
-2.0940526e-01
6.0263008e-01
0.0000000e+00
0.0000000e+00
7.6613909e-01
-1.7022635e-01
0.0000000e+00
0.0000000e+00
-2.1938848e-01
6.6800719e-01
-1.9248034e-01
7.4197489e-01
0.0000000e+00
8.0960178e-01
0.0000000e+00
0.0000000e+00
8.1041622e-01
-2.8466810e-02
-5.6800466e-02
8.0847138e-01
-2.1999703e-01
5.5892116e-01
0.0000000e+00
0.0000000e+00
8.0241120e-01
-8.4888488e-02
-2.1391106e-01
-2.3505135e-01
0.0000000e+00
0.0000000e+00
-1.1261963e-01
7.9258370e-01
6.3046318e-01
7.1462363e-01
0.0000000e+00
0.0000000e+00
0.0000000e+00
0.0000000e+00
-1.3988332e-01
7.7915514e-01
0.0000000e+00
0.0000000e+00
-2.3440297e-01
6.8418717e-01
0.0000000e+00
-1.6656902e-01
7.6228827e-01
0.0000000e+00
0.0000000e+00
0.0000000e+00
-2.4935505e-01
5.8973187e-01
0.0000000e+00
0.0000000e+00
7.4212235e-01
-1.9256535e-01
-2.5382808e-01
0.0000000e+00
0.0000000e+00
6.5076309e-01
0.0000000e+00
7.1878219e-01
-2.1775886e-01
0.0000000e+00
0.0000000e+00
0.0000000e+00
0.0000000e+00
0.0000000e+00
7.8005731e-01
-2.6281682e-01
-3.1647358e-02
5.4765737e-01
7.8084868e-01
-6.3149765e-02
0.0000000e+00
0.0000000e+00
7.7898240e-01
-9.4382249e-02
0.0000000e+00
0.0000000e+00
7.7315295e-01
-2.7205440e-01
6.1445218e-01
0.0000000e+00
0.0000000e+00
6.9238251e-01
-2.4203238e-01
-1.2522119e-01
7.6369709e-01
-1.5554389e-01
7.5077677e-01
0.0000000e+00
0.0000000e+00
-2.7477616e-01
5.0309706e-01
-2.6526237e-01
0.0000000e+00
0.0000000e+00
6.6303205e-01
7.3455143e-01
-1.8522799e-01
-2.8887752e-01
5.7527071e-01
0.0000000e+00
0.0000000e+00
0.0000000e+00
0.0000000e+00
-2.1415091e-01
0.0000000e+00
0.0000000e+00
7.1515870e-01
6.3083893e-01
-2.8731829e-01
0.0000000e+00
0.0000000e+00
0.0000000e+00
0.0000000e+00
-2.4218893e-01
-3.0479306e-01
5.3428853e-01
6.9272345e-01
0.0000000e+00
0.0000000e+00
0.0000000e+00
7.4743426e-01
0.0000000e+00
0.0000000e+00
-3.4702897e-02
7.4819875e-01
-6.9249667e-02
7.4641752e-01
-3.0804521e-01
5.9589469e-01
-1.0350342e-01
7.4084049e-01
-2.6921588e-01
6.6736239e-01
7.3179162e-01
0.0000000e+00
0.0000000e+00
-1.3732874e-01
4.9075192e-01
-3.1847662e-01
7.1942753e-01
-1.7059134e-01
0.0000000e+00
0.0000000e+00
0.0000000e+00
0.0000000e+00
0.0000000e+00
-2.9510179e-01
6.3918841e-01
-3.2733637e-01
0.0000000e+00
0.0000000e+00
5.5839092e-01
0.0000000e+00
7.0390302e-01
0.0000000e+00
-2.0315775e-01
0.0000000e+00
0.0000000e+00
-2.3489487e-01
6.8535274e-01
-3.1970900e-01
6.0831207e-01
0.0000000e+00
0.0000000e+00
0.0000000e+00
0.0000000e+00
-3.4476054e-01
5.1810718e-01
0.0000000e+00
0.0000000e+00
-2.6566944e-01
6.6389978e-01
7.1186143e-01
0.0000000e+00
7.1259528e-01
-3.7621118e-02
-7.5075589e-02
7.1090513e-01
0.0000000e+00
0.0000000e+00
-3.4289670e-01
5.7485557e-01
0.0000000e+00
0.0000000e+00
-1.1221518e-01
7.0560122e-01
0.0000000e+00
0.0000000e+00
6.3966078e-01
-2.9534706e-01
6.9699299e-01
-1.4889324e-01
0.0000000e+00
0.0000000e+00
0.0000000e+00
0.0000000e+00
-3.6100119e-01
4.7669041e-01
6.8523091e-01
-1.8496455e-01
0.0000000e+00
0.0000000e+00
-3.2379124e-01
6.1274922e-01
0.0000000e+00
0.0000000e+00
5.3890705e-01
-3.6447960e-01
6.7046386e-01
-2.2028509e-01
0.0000000e+00
0.0000000e+00
6.5282208e-01
-2.5471184e-01
4.3298808e-01
-3.7525353e-01
-3.5086226e-01
5.8328044e-01
0.0000000e+00
0.0000000e+00
5.0074834e-01
-3.8438073e-01
0.0000000e+00
0.0000000e+00
0.0000000e+00
6.3242573e-01
0.0000000e+00
0.0000000e+00
-2.8810251e-01
0.0000000e+00
0.0000000e+00
-3.7641227e-01
5.5137062e-01
0.0000000e+00
6.7347920e-01
6.7417872e-01
-4.0390149e-02
0.0000000e+00
0.0000000e+00
6.7258537e-01
-8.0603801e-02
6.0938895e-01
-3.2031500e-01
-1.2048198e-01
6.6757423e-01
0.0000000e+00
0.0000000e+00
-4.0206254e-01
4.6014056e-01
0.0000000e+00
0.0000000e+00
-1.5986745e-01
0.0000000e+00
0.0000000e+00
6.5943867e-01
5.1715952e-01
6.4832205e-01
-1.9860458e-01
-4.0029725e-01
-3.5120699e-01
5.8382428e-01
0.0000000e+00
0.0000000e+00
6.3436639e-01
0.0000000e+00
0.0000000e+00
-2.3653939e-01
0.0000000e+00
0.0000000e+00
-4.1863453e-01
4.1863552e-01
0.0000000e+00
0.0000000e+00
-3.8063467e-01
5.5584568e-01
0.0000000e+00
0.0000000e+00
6.1769652e-01
-2.7351952e-01
-4.2231885e-01
4.8074713e-01
0.0000000e+00
0.0000000e+00
0.0000000e+00
0.0000000e+00
5.9842783e-01
-3.0939406e-01
-4.0845343e-01
5.2557325e-01
0.0000000e+00
6.3243908e-01
-4.2998567e-02
6.3310075e-01
0.0000000e+00
0.0000000e+00
-4.3299034e-01
3.7525430e-01
-8.5811488e-02
6.3160962e-01
5.7667083e-01
-4.4244662e-01
4.4244593e-01
0.0000000e+00
0.0000000e+00
-3.4401360e-01
6.2690967e-01
-1.2826969e-01
0.0000000e+00
6.1927724e-01
-1.7020591e-01
0.0000000e+00
0.0000000e+00
4.9313116e-01
0.0000000e+00
0.0000000e+00
-4.3451223e-01
0.0000000e+00
0.0000000e+00
-3.7722984e-01
6.0884732e-01
-2.1145478e-01
5.5253470e-01
0.0000000e+00
0.0000000e+00
-2.5185293e-01
5.9575438e-01
0.0000000e+00
0.0000000e+00
-4.6014199e-01
4.0206259e-01
0.0000000e+00
0.0000000e+00
0.0000000e+00
5.2613074e-01
-4.0889558e-01
0.0000000e+00
4.5867345e-01
-4.5867389e-01
-2.9123905e-01
5.8011663e-01
0.0000000e+00
5.6204373e-01
0.0000000e+00
-3.2945418e-01
-4.3886414e-01
0.0000000e+00
4.9757463e-01
0.0000000e+00
-4.7669464e-01
3.6100143e-01
0.0000000e+00
0.0000000e+00
0.0000000e+00
0.0000000e+00
-4.8074803e-01
0.0000000e+00
5.8890295e-01
4.2231846e-01
5.8952349e-01
-4.5435395e-02
5.8813959e-01
0.0000000e+00
-3.6634168e-01
0.0000000e+00
-9.0676717e-02
5.4164106e-01
5.8376843e-01
-1.3554545e-01
0.0000000e+00
0.0000000e+00
-1.7986499e-01
5.7666755e-01
0.0000000e+00
0.0000000e+00
4.6699134e-01
-4.6699151e-01
5.1901305e-01
-4.0174741e-01
5.6696337e-01
-2.2346081e-01
-4.9076253e-01
3.1847528e-01
-5.0075018e-01
3.8438049e-01
0.0000000e+00
0.0000000e+00
0.0000000e+00
0.0000000e+00
-2.6616067e-01
5.5478156e-01
-4.9313146e-01
4.9426597e-01
4.3451196e-01
-4.3551987e-01
0.0000000e+00
5.4023296e-01
-3.0779496e-01
0.0000000e+00
0.0000000e+00
0.0000000e+00
0.0000000e+00
0.0000000e+00
0.0000000e+00
-3.4819695e-01
-5.1811135e-01
3.4476021e-01
5.2342069e-01
-5.0311357e-01
0.0000000e+00
0.0000000e+00
2.7477592e-01
4.6751064e-01
-4.6751067e-01
4.0029696e-01
-5.1716006e-01
0.0000000e+00
0.0000000e+00
0.0000000e+00
5.4304278e-01
0.0000000e+00
0.0000000e+00
5.4361904e-01
-4.7690067e-02
5.0444376e-01
-3.8720304e-01
-9.5178396e-02
5.4234707e-01
5.3832096e-01
-1.4227772e-01
4.3886399e-01
-4.9757466e-01
-1.8880273e-01
5.3177840e-01
0.0000000e+00
0.0000000e+00
-5.3429729e-01
3.0479202e-01
-4.2465320e-01
4.8340067e-01
0.0000000e+00
0.0000000e+00
3.6447936e-01
0.0000000e+00
0.0000000e+00
5.2283633e-01
-2.3457041e-01
-5.3890800e-01
0.0000000e+00
0.0000000e+00
5.1161104e-01
-2.7940032e-01
0.0000000e+00
0.0000000e+00
4.0845326e-01
-5.2557325e-01
0.0000000e+00
0.0000000e+00
4.6039140e-01
-4.6039137e-01
4.9820527e-01
-3.2311496e-01
0.0000000e+00
0.0000000e+00
2.6281723e-01
-5.4766941e-01
3.2733613e-01
-5.5839264e-01
-3.6554033e-01
4.8271471e-01
-4.9426591e-01
4.3551981e-01
0.0000000e+00
0.0000000e+00
0.0000000e+00
0.0000000e+00
-5.5137050e-01
3.7641209e-01
-4.0650612e-01
0.0000000e+00
4.9503940e-01
4.6523136e-01
0.0000000e+00
-4.9752373e-02
4.9556854e-01
0.0000000e+00
0.0000000e+00
4.9441293e-01
-9.9296123e-02
0.0000000e+00
0.0000000e+00
0.0000000e+00
-1.4843597e-01
-5.2613062e-01
0.0000000e+00
4.0889549e-01
4.9074686e-01
-5.7527339e-01
2.8887719e-01
-5.5893135e-01
2.1999758e-01
-1.9697861e-01
4.8478726e-01
3.4289652e-01
-5.7485521e-01
0.0000000e+00
0.0000000e+00
-4.4584656e-01
4.4584656e-01
-2.4473323e-01
4.7664100e-01
0.0000000e+00
0.0000000e+00
0.0000000e+00
0.0000000e+00
3.8063455e-01
-5.5584538e-01
-2.9151177e-01
4.6641439e-01
4.2465320e-01
-4.8340061e-01
-5.8973461e-01
2.4935523e-01
-3.3712947e-01
4.5420137e-01
0.0000000e+00
0.0000000e+00
-5.9589368e-01
3.0804506e-01
1.7657334e-01
-5.6836528e-01