# vtk DataFile Version 4.0
vtk output
ASCII
DATASET UNSTRUCTURED_GRID
POINTS 2601 float
0.0000000e+00 0.0000000e+00 0.0000000e+00 
0.0000000e+00 2.0000000e-02 0.0000000e+00 
2.0000000e-02 0.0000000e+00 0.0000000e+00 
2.0000000e-02 2.0000000e-02 0.0000000e+00 
3.9999999e-02 0.0000000e+00 0.0000000e+00 
0.0000000e+00 3.9999999e-02 0.0000000e+00 
3.9999999e-02 2.0000000e-02 0.0000000e+00 
2.0000000e-02 3.9999999e-02 0.0000000e+00 
3.9999999e-02 3.9999999e-02 0.0000000e+00 
5.9999999e-02 0.0000000e+00 0.0000000e+00 
0.0000000e+00 5.9999999e-02 0.0000000e+00 
5.9999999e-02 2.0000000e-02 0.0000000e+00 
2.0000000e-02 5.9999999e-02 0.0000000e+00 
3.9999999e-02 5.9999999e-02 0.0000000e+00 
5.9999999e-02 3.9999999e-02 0.0000000e+00 
7.9999998e-02 0.0000000e+00 0.0000000e+00 
0.0000000e+00 7.9999998e-02 0.0000000e+00 
7.9999998e-02 2.0000000e-02 0.0000000e+00 
2.0000000e-02 7.9999998e-02 0.0000000e+00 
5.9999999e-02 5.9999999e-02 0.0000000e+00 
7.9999998e-02 3.9999999e-02 0.0000000e+00 
3.9999999e-02 7.9999998e-02 0.0000000e+00 
5.9999999e-02 7.9999998e-02 0.0000000e+00 
7.9999998e-02 5.9999999e-02 0.0000000e+00 
1.0000000e-01 0.0000000e+00 0.0000000e+00 
0.0000000e+00 1.0000000e-01 0.0000000e+00 
1.0000000e-01 2.0000000e-02 0.0000000e+00 
2.0000000e-02 1.0000000e-01 0.0000000e+00 
3.9999999e-02 1.0000000e-01 0.0000000e+00 
1.0000000e-01 3.9999999e-02 0.0000000e+00 
7.9999998e-02 7.9999998e-02 0.0000000e+00 
1.0000000e-01 5.9999999e-02 0.0000000e+00 
5.9999999e-02 1.0000000e-01 0.0000000e+00 
1.2000000e-01 0.0000000e+00 0.0000000e+00 
0.0000000e+00 1.2000000e-01 0.0000000e+00 
1.2000000e-01 2.0000000e-02 0.0000000e+00 
2.0000000e-02 1.2000000e-01 0.0000000e+00 
1.2000000e-01 3.9999999e-02 0.0000000e+00 
3.9999999e-02 1.2000000e-01 0.0000000e+00 
1.0000000e-01 7.9999998e-02 0.0000000e+00 
7.9999998e-02 1.0000000e-01 0.0000000e+00 
1.2000000e-01 5.9999999e-02 0.0000000e+00 
5.9999999e-02 1.2000000e-01 0.0000000e+00 
0.0000000e+00 1.4000000e-01 0.0000000e+00 
1.4000000e-01 0.0000000e+00 0.0000000e+00 
1.0000000e-01 1.0000000e-01 0.0000000e+00 
2.0000000e-02 1.4000000e-01 0.0000000e+00 
1.4000000e-01 2.0000000e-02 0.0000000e+00 
1.2000000e-01 7.9999998e-02 0.0000000e+00 
7.9999998e-02 1.2000000e-01 0.0000000e+00 
3.9999999e-02 1.4000000e-01 0.0000000e+00 
1.4000000e-01 3.9999999e-02 0.0000000e+00 
1.4000000e-01 5.9999999e-02 0.0000000e+00 
5.9999999e-02 1.4000000e-01 0.0000000e+00 
1.2000000e-01 1.0000000e-01 0.0000000e+00 
1.0000000e-01 1.2000000e-01 0.0000000e+00 
1.6000000e-01 0.0000000e+00 0.0000000e+00 
0.0000000e+00 1.6000000e-01 0.0000000e+00 
1.6000000e-01 2.0000000e-02 0.0000000e+00 
7.9999998e-02 1.4000000e-01 0.0000000e+00 
2.0000000e-02 1.6000000e-01 0.0000000e+00 
1.4000000e-01 7.9999998e-02 0.0000000e+00 
1.6000000e-01 3.9999999e-02 0.0000000e+00 
3.9999999e-02 1.6000000e-01 0.0000000e+00 
1.2000000e-01 1.2000000e-01 0.0000000e+00 
1.6000000e-01 5.9999999e-02 0.0000000e+00 
5.9999999e-02 1.6000000e-01 0.0000000e+00 
1.0000000e-01 1.4000000e-01 0.0000000e+00 
1.4000000e-01 1.0000000e-01 0.0000000e+00 
1.6000000e-01 7.9999998e-02 0.0000000e+00 
7.9999998e-02 1.6000000e-01 0.0000000e+00 
0.0000000e+00 1.8000001e-01 0.0000000e+00 
1.8000001e-01 0.0000000e+00 0.0000000e+00 
1.8000001e-01 2.0000000e-02 0.0000000e+00 
2.0000000e-02 1.8000001e-01 0.0000000e+00 
3.9999999e-02 1.8000001e-01 0.0000000e+00 
1.8000001e-01 3.9999999e-02 0.0000000e+00 
1.2000000e-01 1.4000000e-01 0.0000000e+00 
1.4000000e-01 1.2000000e-01 0.0000000e+00 
1.0000000e-01 1.6000000e-01 0.0000000e+00 
1.6000000e-01 1.0000000e-01 0.0000000e+00 
1.8000001e-01 5.9999999e-02 0.0000000e+00 
5.9999999e-02 1.8000001e-01 0.0000000e+00 
7.9999998e-02 1.8000001e-01 0.0000000e+00 
1.8000001e-01 7.9999998e-02 0.0000000e+00 
1.4000000e-01 1.4000000e-01 0.0000000e+00 
1.2000000e-01 1.6000000e-01 0.0000000e+00 
1.6000000e-01 1.2000000e-01 0.0000000e+00 
0.0000000e+00 2.0000000e-01 0.0000000e+00 
2.0000000e-01 0.0000000e+00 0.0000000e+00 
2.0000000e-01 2.0000000e-02 0.0000000e+00 
2.0000000e-02 2.0000000e-01 0.0000000e+00 
2.0000000e-01 3.9999999e-02 0.0000000e+00 
3.9999999e-02 2.0000000e-01 0.0000000e+00 
1.0000000e-01 1.8000001e-01 0.0000000e+00 
1.8000001e-01 1.0000000e-01 0.0000000e+00 
2.0000000e-01 5.9999999e-02 0.0000000e+00 
5.9999999e-02 2.0000000e-01 0.0000000e+00 
1.4000000e-01 1.6000000e-01 0.0000000e+00 
1.6000000e-01 1.4000000e-01 0.0000000e+00 
2.0000000e-01 7.9999998e-02 0.0000000e+00 
7.9999998e-02 2.0000000e-01 0.0000000e+00 
1.8000001e-01 1.2000000e-01 0.0000000e+00 
1.2000000e-01 1.8000001e-01 0.0000000e+00 
2.2000000e-01 0.0000000e+00 0.0000000e+00 
0.0000000e+00 2.2000000e-01 0.0000000e+00 
2.2000000e-01 2.0000000e-02 0.0000000e+00 
2.0000000e-02 2.2000000e-01 0.0000000e+00 
2.2000000e-01 3.9999999e-02 0.0000000e+00 
3.9999999e-02 2.2000000e-01 0.0000000e+00 
1.0000000e-01 2.0000000e-01 0.0000000e+00 
2.0000000e-01 1.0000000e-01 0.0000000e+00 
1.6000000e-01 1.6000000e-01 0.0000000e+00 
2.2000000e-01 5.9999999e-02 0.0000000e+00 
5.9999999e-02 2.2000000e-01 0.0000000e+00 
1.8000001e-01 1.4000000e-01 0.0000000e+00 
1.4000000e-01 1.8000001e-01 0.0000000e+00 
2.0000000e-01 1.2000000e-01 0.0000000e+00 
1.2000000e-01 2.0000000e-01 0.0000000e+00 
7.9999998e-02 2.2000000e-01 0.0000000e+00 
2.2000000e-01 7.9999998e-02 0.0000000e+00 
2.3999999e-01 0.0000000e+00 0.0000000e+00 
0.0000000e+00 2.3999999e-01 0.0000000e+00 
2.3999999e-01 2.0000000e-02 0.0000000e+00 
1.8000001e-01 1.6000000e-01 0.0000000e+00 
1.6000000e-01 1.8000001e-01 0.0000000e+00 
2.0000000e-02 2.3999999e-01 0.0000000e+00 
2.2000000e-01 1.0000000e-01 0.0000000e+00 
1.0000000e-01 2.2000000e-01 0.0000000e+00 
3.9999999e-02 2.3999999e-01 0.0000000e+00 
2.3999999e-01 3.9999999e-02 0.0000000e+00 
1.4000000e-01 2.0000000e-01 0.0000000e+00 
2.0000000e-01 1.4000000e-01 0.0000000e+00 
2.3999999e-01 5.9999999e-02 0.0000000e+00 
5.9999999e-02 2.3999999e-01 0.0000000e+00 
2.2000000e-01 1.2000000e-01 0.0000000e+00 
1.2000000e-01 2.2000000e-01 0.0000000e+00 
7.9999998e-02 2.3999999e-01 0.0000000e+00 
2.3999999e-01 7.9999998e-02 0.0000000e+00 
1.8000001e-01 1.8000001e-01 0.0000000e+00 
2.0000000e-01 1.6000000e-01 0.0000000e+00 
1.6000000e-01 2.0000000e-01 0.0000000e+00 
1.0000000e-01 2.3999999e-01 0.0000000e+00 
2.3999999e-01 1.0000000e-01 0.0000000e+00 
0.0000000e+00 2.5999999e-01 0.0000000e+00 
2.5999999e-01 0.0000000e+00 0.0000000e+00 
1.4000000e-01 2.2000000e-01 0.0000000e+00 
2.2000000e-01 1.4000000e-01 0.0000000e+00 
2.0000000e-02 2.5999999e-01 0.0000000e+00 
2.5999999e-01 2.0000000e-02 0.0000000e+00 
3.9999999e-02 2.5999999e-01 0.0000000e+00 
2.5999999e-01 3.9999999e-02 0.0000000e+00 
5.9999999e-02 2.5999999e-01 0.0000000e+00 
2.5999999e-01 5.9999999e-02 0.0000000e+00 
2.3999999e-01 1.2000000e-01 0.0000000e+00 
1.2000000e-01 2.3999999e-01 0.0000000e+00 
1.8000001e-01 2.0000000e-01 0.0000000e+00 
2.0000000e-01 1.8000001e-01 0.0000000e+00 
2.2000000e-01 1.6000000e-01 0.0000000e+00 
7.9999998e-02 2.5999999e-01 0.0000000e+00 
2.5999999e-01 7.9999998e-02 0.0000000e+00 
1.6000000e-01 2.2000000e-01 0.0000000e+00 
2.3999999e-01 1.4000000e-01 0.0000000e+00 
1.4000000e-01 2.3999999e-01 0.0000000e+00 
1.0000000e-01 2.5999999e-01 0.0000000e+00 
2.5999999e-01 1.0000000e-01 0.0000000e+00 
2.8000000e-01 0.0000000e+00 0.0000000e+00 
0.0000000e+00 2.8000000e-01 0.0000000e+00 
2.0000000e-02 2.8000000e-01 0.0000000e+00 
2.8000000e-01 2.0000000e-02 0.0000000e+00 
2.8000000e-01 3.9999999e-02 0.0000000e+00 
3.9999999e-02 2.8000000e-01 0.0000000e+00 
2.0000000e-01 2.0000000e-01 0.0000000e+00 
1.8000001e-01 2.2000000e-01 0.0000000e+00 
2.2000000e-01 1.8000001e-01 0.0000000e+00 
2.8000000e-01 5.9999999e-02 0.0000000e+00 
2.5999999e-01 1.2000000e-01 0.0000000e+00 
1.2000000e-01 2.5999999e-01 0.0000000e+00 
5.9999999e-02 2.8000000e-01 0.0000000e+00 
2.3999999e-01 1.6000000e-01 0.0000000e+00 
1.6000000e-01 2.3999999e-01 0.0000000e+00 
7.9999998e-02 2.8000000e-01 0.0000000e+00 
2.8000000e-01 7.9999998e-02 0.0000000e+00 
1.4000000e-01 2.5999999e-01 0.0000000e+00 
2.5999999e-01 1.4000000e-01 0.0000000e+00 
2.2000000e-01 2.0000000e-01 0.0000000e+00 
1.0000000e-01 2.8000000e-01 0.0000000e+00 
2.0000000e-01 2.2000000e-01 0.0000000e+00 
2.8000000e-01 1.0000000e-01 0.0000000e+00 
1.8000001e-01 2.3999999e-01 0.0000000e+00 
3.0000001e-01 0.0000000e+00 0.0000000e+00 
2.3999999e-01 1.8000001e-01 0.0000000e+00 
0.0000000e+00 3.0000001e-01 0.0000000e+00 
3.0000001e-01 2.0000000e-02 0.0000000e+00 
2.0000000e-02 3.0000001e-01 0.0000000e+00 
3.9999999e-02 3.0000001e-01 0.0000000e+00 
3.0000001e-01 3.9999999e-02 0.0000000e+00 
1.2000000e-01 2.8000000e-01 0.0000000e+00 
2.8000000e-01 1.2000000e-01 0.0000000e+00 
1.6000000e-01 2.5999999e-01 0.0000000e+00 
2.5999999e-01 1.6000000e-01 0.0000000e+00 
5.9999999e-02 3.0000001e-01 0.0000000e+00 
3.0000001e-01 5.9999999e-02 0.0000000e+00 
7.9999998e-02 3.0000001e-01 0.0000000e+00 
3.0000001e-01 7.9999998e-02 0.0000000e+00 
2.2000000e-01 2.2000000e-01 0.0000000e+00 
2.3999999e-01 2.0000000e-01 0.0000000e+00 
2.0000000e-01 2.3999999e-01 0.0000000e+00 
1.4000000e-01 2.8000000e-01 0.0000000e+00 
2.8000000e-01 1.4000000e-01 0.0000000e+00 
1.0000000e-01 3.0000001e-01 0.0000000e+00 
2.5999999e-01 1.8000001e-01 0.0000000e+00 
1.8000001e-01 2.5999999e-01 0.0000000e+00 
3.0000001e-01 1.0000000e-01 0.0000000e+00 
0.0000000e+00 3.1999999e-01 0.0000000e+00 
3.1999999e-01 0.0000000e+00 0.0000000e+00 
2.0000000e-02 3.1999999e-01 0.0000000e+00 
3.1999999e-01 2.0000000e-02 0.0000000e+00 
3.9999999e-02 3.1999999e-01 0.0000000e+00 
1.6000000e-01 2.8000000e-01 0.0000000e+00 
3.1999999e-01 3.9999999e-02 0.0000000e+00 
2.8000000e-01 1.6000000e-01 0.0000000e+00 
1.2000000e-01 3.0000001e-01 0.0000000e+00 
3.0000001e-01 1.2000000e-01 0.0000000e+00 
2.2000000e-01 2.3999999e-01 0.0000000e+00 
5.9999999e-02 3.1999999e-01 0.0000000e+00 
2.3999999e-01 2.2000000e-01 0.0000000e+00 
3.1999999e-01 5.9999999e-02 0.0000000e+00 
2.0000000e-01 2.5999999e-01 0.0000000e+00 
2.5999999e-01 2.0000000e-01 0.0000000e+00 
[...]
POINT_DATA 2601
FIELD FieldData 1
TEMPERATURE 1 2601  float
-0.0000000e+00
0.0000000e+00
-5.1372048e-02
-5.1737238e-02
-1.0254135e-01
0.0000000e+00
-1.0327083e-01
-5.1658977e-02
-1.0311489e-01
-1.5330596e-01
0.0000000e+00
-1.5439847e-01
-5.1318422e-02
-1.0243537e-01
-1.5416697e-01
-2.0346557e-01
0.0000000e+00
-2.0491934e-01
-5.0716773e-02
-1.5315260e-01
-2.0461570e-01
-1.0123463e-01
-1.5135887e-01
-2.0327291e-01
-2.5282216e-01
0.0000000e+00
-2.5463486e-01
-4.9870797e-02
-9.9546157e-02
-2.5426358e-01
-2.0089559e-01
-2.5260088e-01
-1.4883582e-01
-3.0118099e-01
0.0000000e+00
-3.0334941e-01
-4.8794731e-02
-3.0291590e-01
-9.7398363e-02
-2.4965240e-01
-1.9755009e-01
-3.0094364e-01
-1.4562592e-01
0.0000000e+00
-3.4835121e-01
-2.4550049e-01
-4.7502529e-02
-3.5087121e-01
-2.9743925e-01
-1.9329268e-01
-9.4819076e-02
-3.5038149e-01
-3.4811163e-01
-1.4177069e-01
-2.9250062e-01
-2.4021496e-01
-3.9414662e-01
0.0000000e+00
-3.9701295e-01
-1.8817845e-01
-4.6007264e-02
-3.4406903e-01
-3.9647353e-01
-9.1834389e-02
-2.8621072e-01
-3.9391932e-01
-1.3730913e-01
-2.3386407e-01
-3.3836669e-01
-3.8935849e-01
-1.8225901e-01
0.0000000e+00
-4.3838653e-01
-4.4159254e-01
-4.4321138e-02
-8.8468634e-02
-4.4101009e-01
-2.7865058e-01
-3.3110020e-01
-2.2651181e-01
-3.8291839e-01
-4.3818596e-01
-1.3227758e-01
-1.7558248e-01
-4.3312871e-01
-3.2236299e-01
-2.6989624e-01
-3.7470677e-01
0.0000000e+00
-4.8089632e-01
-4.8443392e-01
-4.2455528e-02
-4.8381513e-01
-8.4744498e-02
-2.1821779e-01
-4.2597947e-01
-4.8073626e-01
-1.2670989e-01
-3.1224245e-01
-3.6482874e-01
-4.7520599e-01
-1.6819374e-01
-4.1685736e-01
-2.6001838e-01
-5.2150828e-01
0.0000000e+00
-5.2536768e-01
-4.0421117e-02
-5.2471900e-01
-8.0683313e-02
-2.0903762e-01
-4.6737844e-01
-3.5338256e-01
-5.2140105e-01
-1.2063790e-01
-4.0587851e-01
-3.0081999e-01
-4.5738330e-01
-2.4908298e-01
-1.6013496e-01
-5.1542246e-01
-5.6006205e-01
0.0000000e+00
-5.6423169e-01
-3.9315137e-01
-3.4045976e-01
-3.8228080e-02
-5.0694931e-01
-1.9902359e-01
-7.6305367e-02
-5.6355911e-01
-2.8817156e-01
-4.4534689e-01
-5.6001818e-01
-1.1409197e-01
-4.9612102e-01
-2.3715222e-01
-1.5144640e-01
-5.5361694e-01
-3.7877679e-01
-4.3138689e-01
-3.2614574e-01
-1.8822569e-01
-5.4453254e-01
0.0000000e+00
-5.9640551e-01
-2.7436882e-01
-4.8307297e-01
-3.5886280e-02
-6.0087198e-01
-7.1630351e-02
-6.0018086e-01
-1.0710153e-01
-5.9643298e-01
-5.3291285e-01
-2.2428556e-01
-3.6284897e-01
-4.1561267e-01
-4.6793112e-01
-1.4216714e-01
-5.8963561e-01
-3.1052116e-01
-5.1890141e-01
-2.5948051e-01
-1.7669255e-01
-5.7997543e-01
-6.3039517e-01
0.0000000e+00
-3.3405449e-02
-6.3514310e-01
-6.3443810e-01
-6.6677712e-02
-3.9812639e-01
-3.4545711e-01
-4.5081234e-01
-6.3049936e-01
-5.6760794e-01
-2.1054110e-01
-9.9695690e-02
-5.0263119e-01
-2.9366380e-01
-1.3233592e-01
-6.2333274e-01
-2.4357407e-01
-5.5268329e-01
-4.3182558e-01
-1.6447245e-01
-3.7902507e-01
-6.1313343e-01
-3.2668763e-01
-6.6189700e-01
-4.8422506e-01
0.0000000e+00
-6.6690892e-01
-3.0795369e-02
-6.1466996e-02
-6.6619384e-01
-1.9597667e-01
-6.0006320e-01
-2.7565038e-01
-5.3534013e-01
-9.1903731e-02
-6.6208005e-01
-1.2199172e-01
-6.5457165e-01
-4.1107485e-01
-4.6379775e-01
-3.5840335e-01
-2.2671697e-01
-5.8427739e-01
-1.5161413e-01
-5.1570594e-01
-3.0662647e-01
-6.4387095e-01
0.0000000e+00
-6.9078666e-01
-2.8066006e-02
-6.9604325e-01
-5.6018122e-02
-2.5655815e-01
-6.9532102e-01
-5.6591862e-01
-1.8065085e-01
-6.3014442e-01
-3.8866201e-01
-8.3755523e-02
-4.4145852e-01
-6.9104785e-01
-3.3635613e-01
-4.9389914e-01
-1.1117438e-01
-6.8322551e-01
-2.0897777e-01
-6.1355114e-01
-5.4511708e-01
-2.8536096e-01
-1.3816746e-01
-6.7206204e-01
-4.1731611e-01
-2.3646614e-01
-5.9423596e-01
0.0000000e+00
-7.1695006e-01
-2.5227616e-02
-4.7003317e-01
-3.6469129e-01
-7.2243023e-01
-1.6462360e-01
-6.5772730e-01
-5.0351609e-02
-7.2170299e-01
-5.2199340e-01
-3.1298169e-01
-7.5281858e-02
-7.1728593e-01
-9.9924959e-02
-7.0917809e-01
-6.4038223e-01
-1.9042699e-01
-2.6298153e-01
-5.7232994e-01
-4.4421980e-01
-3.9148131e-01
-1.2418380e-01
-6.9759178e-01
-3.3927092e-01
-4.9666134e-01
-2.1545601e-01
-6.2017208e-01
-7.4028403e-01
0.0000000e+00
-7.4596494e-01
-2.2290835e-02
-2.8838229e-01
-1.4795688e-01
-5.4795283e-01
-6.8269855e-01
-7.4523419e-01
-4.4488717e-02
-7.4068868e-01
-6.6514604e-02
-2.3958187e-01
-5.9722656e-01
-1.7113738e-01
-4.1658226e-01
-6.6465980e-01
-8.8285998e-02
-7.3232448e-01
-3.6407873e-01
-4.6923926e-01
-3.1252056e-01
-5.2121967e-01
-7.2035664e-01
-1.0971644e-01
-6.4361888e-01
-1.9361195e-01
-5.7166332e-01
-2.6266724e-01
-7.0495719e-01
-1.3071477e-01
-7.6069635e-01
0.0000000e+00
-7.6655388e-01
-1.9266700e-02
-3.8451519e-02
-7.6582050e-01
-4.3983620e-01
-3.8723749e-01
-4.9223495e-01
-3.3523071e-01
-7.6116228e-01
-2.1525912e-01
-5.7486866e-02
-6.1970210e-01
-6.8628579e-01
-1.5118411e-01
-2.8456068e-01
-7.5257176e-01
-5.4358941e-01
-7.6301612e-02
-9.4820552e-02
-7.4026573e-01
-6.6448206e-01
-1.7102060e-01
-2.3594713e-01
-5.9302229e-01
-4.0864870e-01
-4.6116552e-01
-3.5638410e-01
-1.1296362e-01
-7.2441518e-01
-3.0511382e-01
-7.7810663e-01
0.0000000e+00
-5.1313102e-01
-7.8411525e-01
-1.6166676e-02
-7.8337991e-01
-3.2262925e-02
-6.3966620e-01
-1.9011192e-01
-7.7862495e-01
-4.8232976e-02
-1.3064484e-01
-7.0517659e-01
-5.6368387e-01
-2.5553218e-01
-6.4017549e-02
-7.6983947e-01
-3.7565815e-01
-4.2797565e-01
-2.0833430e-01
-6.1194199e-01
-6.8268299e-01
-1.4777091e-01
-4.8029155e-01
-3.2405928e-01
-7.9553306e-02
-7.5724089e-01
-2.7383777e-01
-5.3177953e-01
-7.4099833e-01
-9.4772100e-02
-7.9244602e-01
0.0000000e+00
-7.9857951e-01
-1.3002628e-02
-1.6423988e-01
-6.5704584e-01
-7.9784256e-01
-2.5946630e-02
-2.2556190e-01
-5.8142632e-01
-1.0959978e-01
-7.2126347e-01
-7.9300731e-01
-3.9341348e-01
-3.8788408e-02
-3.4154722e-01
-4.4565988e-01
-7.8405964e-01
-5.1480979e-02
-4.9748930e-01
-2.9074937e-01
-6.2835610e-01
-1.7994055e-01
-1.2395496e-01
-6.9816220e-01
-6.3973546e-02
-7.7121699e-01
-5.4812449e-01
-2.4159688e-01
-7.5464576e-01
-7.6210767e-02
-1.3774586e-01
-3.5580751e-01
-4.0758362e-01
-6.7178732e-01
-1.9474146e-01
-5.9669399e-01
0.0000000e+00
-8.0365801e-01
-9.7867912e-03
-8.0988938e-01
-4.5933440e-01
-3.0495426e-01
-8.0915117e-01
-1.9527055e-02
-7.3449326e-01
-8.8131636e-02
-8.0425274e-01
-2.9189650e-02
-2.5649700e-01
-5.1264310e-01
-3.8740307e-02
-7.9517704e-01
-1.5087885e-01
-6.4224005e-01
-9.9667259e-02
-7.1087474e-01
-2.0856865e-01
-5.6224638e-01
-7.8214121e-01
-4.8141412e-02
-3.7008923e-01
-3.1922859e-01
-4.2200583e-01
-7.6530939e-01
-4.7326291e-01
-2.6904166e-01
-5.7351485e-02
-6.0945141e-01
-1.6321093e-01
-6.8387884e-01
-1.1074056e-01
-8.1169838e-01
0.0000000e+00
-6.5317331e-03
-2.2050975e-01
-5.2337295e-01
-8.1800008e-01
-7.4482465e-01
-6.6324160e-02
-1.3029251e-02
-8.1726098e-01
-1.9474056e-02
-8.1231701e-01
-1.2124875e-01
-6.5350652e-01
-5.7408708e-01
-1.7478183e-01
-8.0314881e-01
-3.3217162e-01
-2.5844902e-02
-3.8350499e-01
-7.2079700e-01
-7.5006187e-02
-4.3486828e-01
-2.8179741e-01
-7.8997296e-01
-3.2117859e-02
-2.3256437e-01
-4.8543999e-01
-1.3114367e-01
-6.1996490e-01
-3.8266249e-02
-8.3333470e-02
-6.9330180e-01
-7.7295190e-01
-5.3424758e-01
-1.8475975e-01
0.0000000e+00
-8.1653529e-01
-8.2287955e-01
-3.2503086e-03
-4.4260316e-02
-7.5222582e-01
-3.4368819e-01
-8.2214016e-01
-6.4788247e-03
-2.9331899e-01
-3.9518023e-01
-9.1219380e-02
-6.6235346e-01
-8.1716871e-01
-5.8108962e-01
-1.3983048e-01
-9.6797599e-03
-2.4362129e-01
-4.4608688e-01
-1.2844983e-02
-8.0794454e-01
-7.2790074e-01
-5.0066076e-02
-4.9569970e-01
-1.9525719e-01
-7.9468358e-01
-1.5964428e-02
-6.2807190e-01
-9.8566525e-02
-5.4335099e-01
-1.4883900e-01
-5.5642694e-02
-7.0005113e-01
-7.7754694e-01
-1.9026596e-02
0.0000000e+00
0.0000000e+00
0.0000000e+00
0.0000000e+00
-2.2019325e-02
0.0000000e+00
-8.1814975e-01
-7.5667262e-01
-4.5577663e-01
-2.0506768e-01
4.4383713e-05
-8.2450867e-01
-5.8848763e-01
-1.0485619e-01
-8.2376957e-01
9.8118529e-05
-6.0928535e-02
-6.6869032e-01
1.5435259e-04
-8.1878924e-01
-5.0410861e-01
-1.5743490e-01
-7.3216379e-01
-2.4931127e-02
2.0822196e-04
-8.0954635e-01
0.0000000e+00
0.0000000e+00
-6.5838382e-02
-7.9625648e-01
2.5619869e-04
0.0000000e+00
-6.3398355e-01
-1.1237143e-01
-5.5055124e-01
0.0000000e+00
0.0000000e+00
-7.0409238e-01
-2.7753545e-02
-7.7907979e-01
2.9520885e-04
0.0000000e+00
0.0000000e+00
-6.9932438e-02
-5.9398162e-01
3.2112742e-04
-7.5815254e-01
-6.7247647e-01
-3.0480489e-02
-8.1653529e-01
0.0000000e+00
-8.2288110e-01
3.3390650e-03
6.6750837e-03
-5.1107270e-01
-1.1967226e-01
-8.2214308e-01
0.0000000e+00
9.9887056e-03
-8.1717265e-01
0.0000000e+00
0.0000000e+00
3.2544570e-04
-7.3357457e-01
0.0000000e+00
-8.0794883e-01
1.3262310e-02
-3.3097357e-02
-6.3751292e-01
0.0000000e+00
0.0000000e+00
-5.5565321e-01
-7.5427629e-02
1.6479263e-02
-7.9468715e-01
-7.0541036e-01
2.8557688e-04
0.0000000e+00
0.0000000e+00
-7.7754754e-01
1.9623077e-02
-5.9742457e-01
-3.5259221e-02
0.0000000e+00
0.0000000e+00
0.0000000e+00
0.0000000e+00
2.2676507e-02
-7.5666595e-01
1.3250763e-04
-6.7365640e-01
0.0000000e+00
0.0000000e+00
-8.1169838e-01
0.0000000e+00
6.6203834e-03
-8.1800330e-01
0.0000000e+00
-8.1726724e-01
1.3225389e-02
-8.1232560e-01
1.9783318e-02
0.0000000e+00
0.0000000e+00
-7.3214090e-01
2.5620684e-02
-8.0315888e-01
-3.8666002e-02
-5.5886918e-01
2.6263986e-02
-6.3842970e-01
-3.7961832e-04
-7.8998268e-01
3.2637917e-02
0.0000000e+00
0.0000000e+00
-7.0403457e-01
2.8436154e-02
0.0000000e+00
0.0000000e+00
-7.7295810e-01
0.0000000e+00
0.0000000e+00
3.8875565e-02
-2.2114376e-03
-5.9759647e-01
0.0000000e+00
0.0000000e+00
0.0000000e+00
0.0000000e+00
-6.7234039e-01
3.1109808e-02
-7.5222236e-01
4.4946790e-02
0.0000000e+00
-8.0365801e-01
-8.0989468e-01
9.8750582e-03
0.0000000e+00
0.0000000e+00
1.9722480e-02
-8.0916142e-01
-8.0426735e-01
-7.2787601e-01
2.9498361e-02
5.0821345e-02
-5.5886698e-01
-3.5684078e-03
3.3706013e-02
-6.3720232e-01
3.9160073e-02
0.0000000e+00
-7.9519510e-01
0.0000000e+00
0.0000000e+00
0.0000000e+00
0.0000000e+00
0.0000000e+00
0.0000000e+00
4.8665345e-02
-7.8216106e-01
-6.9997978e-01
5.6472402e-02
0.0000000e+00
0.0000000e+00
3.6530375e-02
-5.9669721e-01
-7.6532841e-01
5.7971291e-02
0.0000000e+00
0.0000000e+00
-6.6852629e-01
6.1886884e-02
0.0000000e+00
0.0000000e+00
6.7033648e-02
-7.4483854e-01
0.0000000e+00
-7.9244602e-01
0.0000000e+00
0.0000000e+00
-7.9858726e-01
1.3090032e-02
2.6140265e-02
0.0000000e+00
0.0000000e+00
3.7527025e-02
-5.5788380e-01
-7.9785770e-01
-7.2079688e-01
7.5805955e-02
-6.3360834e-01
0.0000000e+00
0.0000000e+00
-7.9302943e-01
3.9094746e-02
6.7119330e-02
0.0000000e+00
0.0000000e+00
5.1898558e-02
-7.8408813e-01
8.4241621e-02
0.0000000e+00
-6.9327742e-01
0.0000000e+00
6.4496703e-02
-7.7125090e-01
0.0000000e+00
0.0000000e+00
-5.9321046e-01
7.2101839e-02
7.6832898e-02
-7.5468421e-01
0.0000000e+00
0.0000000e+00
0.0000000e+00
-6.6225755e-01
0.0000000e+00
9.2283107e-02
0.0000000e+00
8.8848069e-02
-7.3453474e-01
0.0000000e+00
0.0000000e+00
-5.5443382e-01
7.5414807e-02
0.0000000e+00
-7.7810663e-01
0.0000000e+00
0.0000000e+00
1.6252588e-02
-7.8412580e-01
0.0000000e+00
0.0000000e+00
-7.8340065e-01
3.2453354e-02
1.0047875e-01
9.9919543e-02
-6.2790763e-01
-7.1092033e-01
-7.7865571e-01
4.8534516e-02
0.0000000e+00
0.0000000e+00
6.4429104e-02
-7.6988018e-01
-6.8392211e-01
1.1165302e-01
0.0000000e+00
0.0000000e+00
0.0000000e+00
8.0069721e-02
0.0000000e+00
-7.5729167e-01
1.0667223e-01
-5.8794469e-01
0.0000000e+00
0.0000000e+00
0.0000000e+00
0.0000000e+00
-7.4105972e-01
9.5387056e-02
0.0000000e+00
0.0000000e+00
-6.5362680e-01
1.2229167e-01
1.1030805e-01
0.0000000e+00
0.0000000e+00
-7.2133738e-01
1.1229908e-01
-5.4942077e-01
0.0000000e+00
0.0000000e+00
-7.6069635e-01
0.0000000e+00
1.9350428e-02
-6.1994892e-01
1.3225366e-01
-7.6656741e-01
-6.9825172e-01
1.2475336e-01
0.0000000e+00
0.0000000e+00
3.8637206e-02
-7.6584744e-01
0.0000000e+00
0.0000000e+00
0.0000000e+00
-7.6120263e-01
5.7781011e-02
0.0000000e+00
0.0000000e+00
-7.5262594e-01
7.6703191e-02
0.0000000e+00
0.0000000e+00
-6.7190611e-01
1.3863374e-01
0.0000000e+00
0.0000000e+00
-5.8357596e-01
1.4146613e-01
0.0000000e+00
0.0000000e+00
9.5324434e-02
-7.4033475e-01
1.1356322e-01
-7.2450089e-01
0.0000000e+00
-6.4238137e-01
0.0000000e+00
1.5184475e-01
0.0000000e+00
0.0000000e+00
1.4896716e-01
-5.4272300e-01
-7.0528269e-01
1.3133381e-01
0.0000000e+00
0.0000000e+00
0.0000000e+00
0.0000000e+00
0.0000000e+00
0.0000000e+00
-6.0974729e-01
1.6424745e-01
0.0000000e+00
-7.4028403e-01
2.2371713e-02
0.0000000e+00
0.0000000e+00
-6.8281615e-01
1.4854376e-01
-7.4598175e-01
4.4668186e-02
-7.4526763e-01
6.6798918e-02
-7.4073911e-01
0.0000000e+00
0.0000000e+00
-5.0301206e-01
1.5644792e-01
8.8674009e-02
0.0000000e+00
0.0000000e+00
-7.3239267e-01
1.6509068e-01
-6.5721637e-01
-5.7418305e-01
1.7572747e-01
1.1020286e-01
-7.2044420e-01
0.0000000e+00
0.0000000e+00
0.0000000e+00
0.0000000e+00
0.0000000e+00
-7.0506698e-01
1.3129264e-01
1.8085696e-01
-6.2858111e-01
0.0000000e+00
0.0000000e+00
0.0000000e+00
0.0000000e+00
1.8544485e-01
-5.3396863e-01
0.0000000e+00
0.0000000e+00
-6.8642265e-01
1.5184639e-01
0.0000000e+00
0.0000000e+00
1.9571553e-01
-5.9702241e-01
1.7176072e-01
-6.6465348e-01
0.0000000e+00
-7.1695006e-01
0.0000000e+00
0.0000000e+00
-7.2245038e-01
2.5305061e-02
5.0523587e-02
-7.2174317e-01
1.9487149e-01
-4.9487051e-01
0.0000000e+00
0.0000000e+00
-7.1734655e-01
7.5554274e-02
1.9092309e-01
2.0947146e-01
0.0000000e+00
0.0000000e+00
1.0029645e-01
-7.0926023e-01
-5.6254113e-01
-6.3988340e-01
0.0000000e+00
0.0000000e+00
0.0000000e+00
0.0000000e+00
1.2464887e-01
-6.9769746e-01
0.0000000e+00
0.0000000e+00
2.0920882e-01
-6.1222208e-01
0.0000000e+00
1.4850828e-01
-6.8283123e-01
0.0000000e+00
0.0000000e+00
0.0000000e+00
2.2215967e-01
-5.2577174e-01
0.0000000e+00
0.0000000e+00
-6.6482484e-01
1.7176773e-01
2.2647986e-01
0.0000000e+00
0.0000000e+00
-5.8177137e-01
0.0000000e+00
-6.4382440e-01
1.9431457e-01
0.0000000e+00
0.0000000e+00
0.0000000e+00
0.0000000e+00
0.0000000e+00
-6.9078666e-01
2.3275149e-01
2.8139548e-02
-4.8503307e-01
-6.9606674e-01
5.6181576e-02
0.0000000e+00
0.0000000e+00
-6.9536781e-01
8.4014386e-02
0.0000000e+00
0.0000000e+00
-6.9111842e-01
2.4257043e-01
-5.4862231e-01
0.0000000e+00
0.0000000e+00
-6.1995965e-01
2.1602820e-01
1.1152702e-01
-6.8332112e-01
1.3860819e-01
-6.7218494e-01
0.0000000e+00
0.0000000e+00
2.4345496e-01
-4.4545668e-01
2.3677821e-01
0.0000000e+00
0.0000000e+00
-5.9334755e-01
-6.5788102e-01
1.6514497e-01
2.5738949e-01
-5.1295918e-01
0.0000000e+00
0.0000000e+00
0.0000000e+00
0.0000000e+00
1.9102141e-01
0.0000000e+00
0.0000000e+00
-6.4057255e-01
-5.6409425e-01
2.5641924e-01
0.0000000e+00
0.0000000e+00
0.0000000e+00
0.0000000e+00
2.1611689e-01
2.6983082e-01
-4.7324076e-01
-6.2040710e-01
0.0000000e+00
0.0000000e+00
0.0000000e+00
-6.6189700e-01
0.0000000e+00
0.0000000e+00
3.0864673e-02
-6.6693562e-01
6.1621163e-02
-6.6624701e-01
2.7480760e-01
-5.3232664e-01
9.2147805e-02
-6.6216016e-01
2.4030435e-01
-5.9751779e-01
-6.5467995e-01
0.0000000e+00
0.0000000e+00
1.2232381e-01
-4.3458393e-01
2.8203776e-01
-6.4400959e-01
1.5202838e-01
0.0000000e+00
0.0000000e+00
0.0000000e+00
0.0000000e+00
0.0000000e+00
2.6344824e-01
-5.7202572e-01
2.9169044e-01
0.0000000e+00
0.0000000e+00
-4.9804375e-01
0.0000000e+00
-6.3031709e-01
0.0000000e+00
1.8113959e-01
0.0000000e+00
0.0000000e+00
2.0953326e-01
-6.1376339e-01
2.8540468e-01
-5.4404718e-01
0.0000000e+00
0.0000000e+00
0.0000000e+00
0.0000000e+00
3.0717579e-01
-4.6185222e-01
0.0000000e+00
0.0000000e+00
2.3708171e-01
-5.9449553e-01
-6.3039517e-01
0.0000000e+00
-6.3517278e-01
3.3470292e-02
6.6822082e-02
-6.3449723e-01
0.0000000e+00
0.0000000e+00
3.0601045e-01
-5.1368797e-01
0.0000000e+00
0.0000000e+00
9.9924155e-02
-6.3058823e-01
0.0000000e+00
0.0000000e+00
-5.7264757e-01
2.6365227e-01
-6.2345254e-01
1.3264634e-01
0.0000000e+00
0.0000000e+00
0.0000000e+00
0.0000000e+00
3.1953335e-01
-4.2202044e-01
-6.1328620e-01
1.6485877e-01
0.0000000e+00
0.0000000e+00
2.8910634e-01
-5.4834312e-01
0.0000000e+00
0.0000000e+00
-4.8111919e-01
3.2512987e-01
-6.0025233e-01
1.9643112e-01
0.0000000e+00
0.0000000e+00
-5.8450794e-01
2.2723153e-01
-3.8342163e-01
3.3231539e-01
3.1329745e-01
-5.2169901e-01
0.0000000e+00
0.0000000e+00
-4.4630164e-01
3.4243852e-01
0.0000000e+00
0.0000000e+00
0.0000000e+00
-5.6619769e-01
0.0000000e+00
0.0000000e+00
2.5712582e-01
0.0000000e+00
0.0000000e+00
3.3607498e-01
-4.9283674e-01
0.0000000e+00
-5.9640551e-01
-6.0090441e-01
3.5946548e-02
0.0000000e+00
0.0000000e+00
-6.0024530e-01
7.1764641e-02
-5.4545432e-01
2.8597650e-01
1.0731392e-01
-5.9652966e-01
0.0000000e+00
0.0000000e+00
3.5821119e-01
-4.1001961e-01
0.0000000e+00
0.0000000e+00
1.4245525e-01
0.0000000e+00
0.0000000e+00
-5.8976549e-01
-4.6186861e-01
-5.8014029e-01
1.7705020e-01
3.5726681e-01
3.1364188e-01
-5.2240086e-01
0.0000000e+00
0.0000000e+00
-5.6781077e-01
0.0000000e+00
0.0000000e+00
2.1096037e-01
0.0000000e+00
0.0000000e+00
3.7054738e-01
-3.7054822e-01
0.0000000e+00
0.0000000e+00
3.3997610e-01
-4.9715513e-01
0.0000000e+00
0.0000000e+00
-5.5292851e-01
2.4404676e-01
3.7675768e-01
-4.2899927e-01
0.0000000e+00
0.0000000e+00
0.0000000e+00
0.0000000e+00
-5.3563392e-01
2.7616906e-01
3.6482772e-01
-4.6983320e-01
0.0000000e+00
-5.6006205e-01
3.8283750e-02
-5.6426644e-01
0.0000000e+00
0.0000000e+00
3.8342348e-01
-3.3231598e-01
7.6429471e-02
-5.6362802e-01
-5.1605636e-01
3.9420724e-01
-3.9420673e-01
0.0000000e+00
0.0000000e+00
3.0718514e-01
-5.6012136e-01
1.1428809e-01
0.0000000e+00
-5.5375516e-01
1.5171197e-01
0.0000000e+00
0.0000000e+00
-4.4056353e-01
0.0000000e+00
0.0000000e+00
3.8804767e-01
0.0000000e+00
0.0000000e+00
3.3695066e-01
-5.4470712e-01
1.8855447e-01
-4.9431634e-01
0.0000000e+00
0.0000000e+00
2.2466956e-01
-5.3312635e-01
0.0000000e+00
0.0000000e+00
4.1002062e-01
-3.5821122e-01
0.0000000e+00
0.0000000e+00
0.0000000e+00
-4.7052875e-01
3.6531883e-01
0.0000000e+00
-4.0946737e-01
4.0946776e-01
2.5991136e-01
-5.1915747e-01
0.0000000e+00
-5.0293493e-01
0.0000000e+00
2.9413375e-01
3.9214185e-01
0.0000000e+00
-4.4480780e-01
0.0000000e+00
4.2202371e-01
-3.1953338e-01
0.0000000e+00
0.0000000e+00
0.0000000e+00
0.0000000e+00
4.2899978e-01
0.0000000e+00
-5.2150828e-01
-3.7675723e-01
-5.2540421e-01
4.0472224e-02
-5.2479136e-01
0.0000000e+00
3.2719001e-01
0.0000000e+00
8.0797262e-02
-4.8458308e-01
-5.2150917e-01
1.2081779e-01
0.0000000e+00
0.0000000e+00
1.6037808e-01
-5.1556683e-01
0.0000000e+00
0.0000000e+00
-4.1726997e-01
4.1727018e-01
-4.6421799e-01
3.5893282e-01
-5.0713092e-01
1.9932373e-01
4.3459260e-01
-2.8203639e-01
4.4630274e-01
-3.4243816e-01
0.0000000e+00
0.0000000e+00
0.0000000e+00
0.0000000e+00
2.3750141e-01
-4.9634176e-01
4.4056356e-01
-4.4195002e-01
-3.8804728e-01
3.8921452e-01
0.0000000e+00
-4.8333582e-01
2.7475867e-01
0.0000000e+00
0.0000000e+00
0.0000000e+00
0.0000000e+00
0.0000000e+00
0.0000000e+00
3.1094369e-01
4.6185496e-01
-3.0717531e-01
-4.6824014e-01
4.4547042e-01
0.0000000e+00
0.0000000e+00
-2.4345461e-01
-4.1788757e-01
4.1788772e-01
-3.5726640e-01
4.6186852e-01
0.0000000e+00
0.0000000e+00
0.0000000e+00
-4.8089632e-01
0.0000000e+00
0.0000000e+00
-4.8447159e-01
4.2502154e-02
-4.5117265e-01
3.4590524e-01
8.4848411e-02
-4.8388967e-01
-4.8084742e-01
1.2687370e-01
-3.9214155e-01
4.4480771e-01
1.6841468e-01
-4.7535390e-01
0.0000000e+00
0.0000000e+00
4.7324702e-01
-2.6982969e-01
3.7949276e-01
-4.3224335e-01
0.0000000e+00
0.0000000e+00
-3.2512945e-01
0.0000000e+00
0.0000000e+00
-4.6756381e-01
2.0930959e-01
4.8111910e-01
0.0000000e+00
0.0000000e+00
-4.5760751e-01
2.4939820e-01
0.0000000e+00
0.0000000e+00
-3.6482733e-01
4.6983275e-01
0.0000000e+00
0.0000000e+00
-4.1155660e-01
4.1155684e-01
-4.4561213e-01
2.8852177e-01
0.0000000e+00
0.0000000e+00
-2.3275171e-01
4.8504198e-01
-2.9168999e-01
4.9804386e-01
3.2652295e-01
-4.3169624e-01
4.4195005e-01
-3.8921422e-01
0.0000000e+00
0.0000000e+00
0.0000000e+00
0.0000000e+00
4.9283576e-01
-3.3607453e-01
3.6324590e-01
0.0000000e+00
-4.3838653e-01
-4.1597006e-01
0.0000000e+00
4.4363372e-02
-4.4163060e-01
0.0000000e+00
0.0000000e+00
-4.4108525e-01
8.8562645e-02
0.0000000e+00
0.0000000e+00
0.0000000e+00
1.3242555e-01
4.7052839e-01