# vtk DataFile Version 4.0
vtk output
ASCII
DATASET UNSTRUCTURED_GRID
POINTS 2601 float
0.0000000e+00 0.0000000e+00 0.0000000e+00 
0.0000000e+00 2.0000000e-02 0.0000000e+00 
2.0000000e-02 0.0000000e+00 0.0000000e+00 
2.0000000e-02 2.0000000e-02 0.0000000e+00 
3.9999999e-02 0.0000000e+00 0.0000000e+00 
0.0000000e+00 3.9999999e-02 0.0000000e+00 
3.9999999e-02 2.0000000e-02 0.0000000e+00 
2.0000000e-02 3.9999999e-02 0.0000000e+00 
3.9999999e-02 3.9999999e-02 0.0000000e+00 
5.9999999e-02 0.0000000e+00 0.0000000e+00 
0.0000000e+00 5.9999999e-02 0.0000000e+00 
5.9999999e-02 2.0000000e-02 0.0000000e+00 
2.0000000e-02 5.9999999e-02 0.0000000e+00 
3.9999999e-02 5.9999999e-02 0.0000000e+00 
5.9999999e-02 3.9999999e-02 0.0000000e+00 
7.9999998e-02 0.0000000e+00 0.0000000e+00 
0.0000000e+00 7.9999998e-02 0.0000000e+00 
7.9999998e-02 2.0000000e-02 0.0000000e+00 
2.0000000e-02 7.9999998e-02 0.0000000e+00 
5.9999999e-02 5.9999999e-02 0.0000000e+00 
7.9999998e-02 3.9999999e-02 0.0000000e+00 
3.9999999e-02 7.9999998e-02 0.0000000e+00 
5.9999999e-02 7.9999998e-02 0.0000000e+00 
7.9999998e-02 5.9999999e-02 0.0000000e+00 
1.0000000e-01 0.0000000e+00 0.0000000e+00 
0.0000000e+00 1.0000000e-01 0.0000000e+00 
1.0000000e-01 2.0000000e-02 0.0000000e+00 
2.0000000e-02 1.0000000e-01 0.0000000e+00 
3.9999999e-02 1.0000000e-01 0.0000000e+00 
1.0000000e-01 3.9999999e-02 0.0000000e+00 
7.9999998e-02 7.9999998e-02 0.0000000e+00 
1.0000000e-01 5.9999999e-02 0.0000000e+00 
5.9999999e-02 1.0000000e-01 0.0000000e+00 
1.2000000e-01 0.0000000e+00 0.0000000e+00 
0.0000000e+00 1.2000000e-01 0.0000000e+00 
1.2000000e-01 2.0000000e-02 0.0000000e+00 
2.0000000e-02 1.2000000e-01 0.0000000e+00 
1.2000000e-01 3.9999999e-02 0.0000000e+00 
3.9999999e-02 1.2000000e-01 0.0000000e+00 
1.0000000e-01 7.9999998e-02 0.0000000e+00 
7.9999998e-02 1.0000000e-01 0.0000000e+00 
1.2000000e-01 5.9999999e-02 0.0000000e+00 
5.9999999e-02 1.2000000e-01 0.0000000e+00 
0.0000000e+00 1.4000000e-01 0.0000000e+00 
1.4000000e-01 0.0000000e+00 0.0000000e+00 
1.0000000e-01 1.0000000e-01 0.0000000e+00 
2.0000000e-02 1.4000000e-01 0.0000000e+00 
1.4000000e-01 2.0000000e-02 0.0000000e+00 
1.2000000e-01 7.9999998e-02 0.0000000e+00 
7.9999998e-02 1.2000000e-01 0.0000000e+00 
3.9999999e-02 1.4000000e-01 0.0000000e+00 
1.4000000e-01 3.9999999e-02 0.0000000e+00 
1.4000000e-01 5.9999999e-02 0.0000000e+00 
5.9999999e-02 1.4000000e-01 0.0000000e+00 
1.2000000e-01 1.0000000e-01 0.0000000e+00 
1.0000000e-01 1.2000000e-01 0.0000000e+00 
1.6000000e-01 0.0000000e+00 0.0000000e+00 
0.0000000e+00 1.6000000e-01 0.0000000e+00 
1.6000000e-01 2.0000000e-02 0.0000000e+00 
7.9999998e-02 1.4000000e-01 0.0000000e+00 
2.0000000e-02 1.6000000e-01 0.0000000e+00 
1.4000000e-01 7.9999998e-02 0.0000000e+00 
1.6000000e-01 3.9999999e-02 0.0000000e+00 
3.9999999e-02 1.6000000e-01 0.0000000e+00 
1.2000000e-01 1.2000000e-01 0.0000000e+00 
1.6000000e-01 5.9999999e-02 0.0000000e+00 
5.9999999e-02 1.6000000e-01 0.0000000e+00 
1.0000000e-01 1.4000000e-01 0.0000000e+00 
1.4000000e-01 1.0000000e-01 0.0000000e+00 
1.6000000e-01 7.9999998e-02 0.0000000e+00 
7.9999998e-02 1.6000000e-01 0.0000000e+00 
0.0000000e+00 1.8000001e-01 0.0000000e+00 
1.8000001e-01 0.0000000e+00 0.0000000e+00 
1.8000001e-01 2.0000000e-02 0.0000000e+00 
2.0000000e-02 1.8000001e-01 0.0000000e+00 
3.9999999e-02 1.8000001e-01 0.0000000e+00 
1.8000001e-01 3.9999999e-02 0.0000000e+00 
1.2000000e-01 1.4000000e-01 0.0000000e+00 
1.4000000e-01 1.2000000e-01 0.0000000e+00 
1.0000000e-01 1.6000000e-01 0.0000000e+00 
1.6000000e-01 1.0000000e-01 0.0000000e+00 
1.8000001e-01 5.9999999e-02 0.0000000e+00 
5.9999999e-02 1.8000001e-01 0.0000000e+00 
7.9999998e-02 1.8000001e-01 0.0000000e+00 
1.8000001e-01 7.9999998e-02 0.0000000e+00 
1.4000000e-01 1.4000000e-01 0.0000000e+00 
1.2000000e-01 1.6000000e-01 0.0000000e+00 
1.6000000e-01 1.2000000e-01 0.0000000e+00 
0.0000000e+00 2.0000000e-01 0.0000000e+00 
2.0000000e-01 0.0000000e+00 0.0000000e+00 
2.0000000e-01 2.0000000e-02 0.0000000e+00 
2.0000000e-02 2.0000000e-01 0.0000000e+00 
2.0000000e-01 3.9999999e-02 0.0000000e+00 
3.9999999e-02 2.0000000e-01 0.0000000e+00 
1.0000000e-01 1.8000001e-01 0.0000000e+00 
1.8000001e-01 1.0000000e-01 0.0000000e+00 
2.0000000e-01 5.9999999e-02 0.0000000e+00 
5.9999999e-02 2.0000000e-01 0.0000000e+00 
1.4000000e-01 1.6000000e-01 0.0000000e+00 
1.6000000e-01 1.4000000e-01 0.0000000e+00 
2.0000000e-01 7.9999998e-02 0.0000000e+00 
7.9999998e-02 2.0000000e-01 0.0000000e+00 
1.8000001e-01 1.2000000e-01 0.0000000e+00 
1.2000000e-01 1.8000001e-01 0.0000000e+00 
2.2000000e-01 0.0000000e+00 0.0000000e+00 
0.0000000e+00 2.2000000e-01 0.0000000e+00 
2.2000000e-01 2.0000000e-02 0.0000000e+00 
2.0000000e-02 2.2000000e-01 0.0000000e+00 
2.2000000e-01 3.9999999e-02 0.0000000e+00 
3.9999999e-02 2.2000000e-01 0.0000000e+00 
1.0000000e-01 2.0000000e-01 0.0000000e+00 
2.0000000e-01 1.0000000e-01 0.0000000e+00 
1.6000000e-01 1.6000000e-01 0.0000000e+00 
2.2000000e-01 5.9999999e-02 0.0000000e+00 
5.9999999e-02 2.2000000e-01 0.0000000e+00 
1.8000001e-01 1.4000000e-01 0.0000000e+00 
1.4000000e-01 1.8000001e-01 0.0000000e+00 
2.0000000e-01 1.2000000e-01 0.0000000e+00 
1.2000000e-01 2.0000000e-01 0.0000000e+00 
7.9999998e-02 2.2000000e-01 0.0000000e+00 
2.2000000e-01 7.9999998e-02 0.0000000e+00 
2.3999999e-01 0.0000000e+00 0.0000000e+00 
0.0000000e+00 2.3999999e-01 0.0000000e+00 
2.3999999e-01 2.0000000e-02 0.0000000e+00 
1.8000001e-01 1.6000000e-01 0.0000000e+00 
1.6000000e-01 1.8000001e-01 0.0000000e+00 
2.0000000e-02 2.3999999e-01 0.0000000e+00 
2.2000000e-01 1.0000000e-01 0.0000000e+00 
1.0000000e-01 2.2000000e-01 0.0000000e+00 
3.9999999e-02 2.3999999e-01 0.0000000e+00 
2.3999999e-01 3.9999999e-02 0.0000000e+00 
1.4000000e-01 2.0000000e-01 0.0000000e+00 
2.0000000e-01 1.4000000e-01 0.0000000e+00 
2.3999999e-01 5.9999999e-02 0.0000000e+00 
5.9999999e-02 2.3999999e-01 0.0000000e+00 
2.2000000e-01 1.2000000e-01 0.0000000e+00 
1.2000000e-01 2.2000000e-01 0.0000000e+00 
7.9999998e-02 2.3999999e-01 0.0000000e+00 
2.3999999e-01 7.9999998e-02 0.0000000e+00 
1.8000001e-01 1.8000001e-01 0.0000000e+00 
2.0000000e-01 1.6000000e-01 0.0000000e+00 
1.6000000e-01 2.0000000e-01 0.0000000e+00 
1.0000000e-01 2.3999999e-01 0.0000000e+00 
2.3999999e-01 1.0000000e-01 0.0000000e+00 
0.0000000e+00 2.5999999e-01 0.0000000e+00 
2.5999999e-01 0.0000000e+00 0.0000000e+00 
1.4000000e-01 2.2000000e-01 0.0000000e+00 
2.2000000e-01 1.4000000e-01 0.0000000e+00 
2.0000000e-02 2.5999999e-01 0.0000000e+00 
2.5999999e-01 2.0000000e-02 0.0000000e+00 
3.9999999e-02 2.5999999e-01 0.0000000e+00 
2.5999999e-01 3.9999999e-02 0.0000000e+00 
5.9999999e-02 2.5999999e-01 0.0000000e+00 
2.5999999e-01 5.9999999e-02 0.0000000e+00 
2.3999999e-01 1.2000000e-01 0.0000000e+00 
1.2000000e-01 2.3999999e-01 0.0000000e+00 
1.8000001e-01 2.0000000e-01 0.0000000e+00 
2.0000000e-01 1.8000001e-01 0.0000000e+00 
2.2000000e-01 1.6000000e-01 0.0000000e+00 
7.9999998e-02 2.5999999e-01 0.0000000e+00 
2.5999999e-01 7.9999998e-02 0.0000000e+00 
1.6000000e-01 2.2000000e-01 0.0000000e+00 
2.3999999e-01 1.4000000e-01 0.0000000e+00 
1.4000000e-01 2.3999999e-01 0.0000000e+00 
1.0000000e-01 2.5999999e-01 0.0000000e+00 
2.5999999e-01 1.0000000e-01 0.0000000e+00 
2.8000000e-01 0.0000000e+00 0.0000000e+00 
0.0000000e+00 2.8000000e-01 0.0000000e+00 
2.0000000e-02 2.8000000e-01 0.0000000e+00 
2.8000000e-01 2.0000000e-02 0.0000000e+00 
2.8000000e-01 3.9999999e-02 0.0000000e+00 
3.9999999e-02 2.8000000e-01 0.0000000e+00 
2.0000000e-01 2.0000000e-01 0.0000000e+00 
1.8000001e-01 2.2000000e-01 0.0000000e+00 
2.2000000e-01 1.8000001e-01 0.0000000e+00 
2.8000000e-01 5.9999999e-02 0.0000000e+00 
2.5999999e-01 1.2000000e-01 0.0000000e+00 
1.2000000e-01 2.5999999e-01 0.0000000e+00 
5.9999999e-02 2.8000000e-01 0.0000000e+00 
2.3999999e-01 1.6000000e-01 0.0000000e+00 
1.6000000e-01 2.3999999e-01 0.0000000e+00 
7.9999998e-02 2.8000000e-01 0.0000000e+00 
2.8000000e-01 7.9999998e-02 0.0000000e+00 
1.4000000e-01 2.5999999e-01 0.0000000e+00 
2.5999999e-01 1.4000000e-01 0.0000000e+00 
2.2000000e-01 2.0000000e-01 0.0000000e+00 
1.0000000e-01 2.8000000e-01 0.0000000e+00 
2.0000000e-01 2.2000000e-01 0.0000000e+00 
2.8000000e-01 1.0000000e-01 0.0000000e+00 
1.8000001e-01 2.3999999e-01 0.0000000e+00 
3.0000001e-01 0.0000000e+00 0.0000000e+00 
2.3999999e-01 1.8000001e-01 0.0000000e+00 
0.0000000e+00 3.0000001e-01 0.0000000e+00 
3.0000001e-01 2.0000000e-02 0.0000000e+00 
2.0000000e-02 3.0000001e-01 0.0000000e+00 
3.9999999e-02 3.0000001e-01 0.0000000e+00 
3.0000001e-01 3.9999999e-02 0.0000000e+00 
1.2000000e-01 2.8000000e-01 0.0000000e+00 
2.8000000e-01 1.2000000e-01 0.0000000e+00 
1.6000000e-01 2.5999999e-01 0.0000000e+00 
2.5999999e-01 1.6000000e-01 0.0000000e+00 
5.9999999e-02 3.0000001e-01 0.0000000e+00 
3.0000001e-01 5.9999999e-02 0.0000000e+00 
7.9999998e-02 3.0000001e-01 0.0000000e+00 
3.0000001e-01 7.9999998e-02 0.0000000e+00 
2.2000000e-01 2.2000000e-01 0.0000000e+00 
2.3999999e-01 2.0000000e-01 0.0000000e+00 
2.0000000e-01 2.3999999e-01 0.0000000e+00 
1.4000000e-01 2.8000000e-01 0.0000000e+00 
2.8000000e-01 1.4000000e-01 0.0000000e+00 
1.0000000e-01 3.0000001e-01 0.0000000e+00 
2.5999999e-01 1.8000001e-01 0.0000000e+00 
1.8000001e-01 2.5999999e-01 0.0000000e+00 
3.0000001e-01 1.0000000e-01 0.0000000e+00 
0.0000000e+00 3.1999999e-01 0.0000000e+00 
3.1999999e-01 0.0000000e+00 0.0000000e+00 
2.0000000e-02 3.1999999e-01 0.0000000e+00 
3.1999999e-01 2.0000000e-02 0.0000000e+00 
3.9999999e-02 3.1999999e-01 0.0000000e+00 
1.6000000e-01 2.8000000e-01 0.0000000e+00 
3.1999999e-01 3.9999999e-02 0.0000000e+00 
2.8000000e-01 1.6000000e-01 0.0000000e+00 
1.2000000e-01 3.0000001e-01 0.0000000e+00 
3.0000001e-01 1.2000000e-01 0.0000000e+00 
2.2000000e-01 2.3999999e-01 0.0000000e+00 
5.9999999e-02 3.1999999e-01 0.0000000e+00 
2.3999999e-01 2.2000000e-01 0.0000000e+00 
3.1999999e-01 5.9999999e-02 0.0000000e+00 
2.0000000e-01 2.5999999e-01 0.0000000e+00 
2.5999999e-01 2.0000000e-01 0.0000000e+00 
[...]
POINT_DATA 2601
FIELD FieldData 1
TEMPERATURE 1 2601  float
0.0000000e+00
0.0000000e+00
5.1932819e-02
5.2414682e-02
1.0366068e-01
0.0000000e+00
1.0462202e-01
5.2450545e-02
1.0469288e-01
1.5497945e-01
0.0000000e+00
1.5641610e-01
5.2214831e-02
1.0422165e-01
1.5652125e-01
2.0568657e-01
0.0000000e+00
2.0759256e-01
5.1706366e-02
1.5581581e-01
2.0773117e-01
1.0320594e-01
1.5429622e-01
2.0679383e-01
2.5558195e-01
0.0000000e+00
2.5794938e-01
5.0939534e-02
1.0167444e-01
2.5812045e-01
2.0477568e-01
2.5695425e-01
1.5200533e-01
3.0446866e-01
0.0000000e+00
3.0728763e-01
4.9926706e-02
3.0748981e-01
9.9651866e-02
2.5444472e-01
2.0173360e-01
3.0609858e-01
1.4898007e-01
0.0000000e+00
3.5215378e-01
2.5066230e-01
4.8680484e-02
3.5541236e-01
3.0310637e-01
1.9771649e-01
9.7163349e-02
3.5564396e-01
3.5403198e-01
1.4525799e-01
2.9859707e-01
2.4566773e-01
3.9844909e-01
0.0000000e+00
4.0213332e-01
1.9277416e-01
4.7213193e-02
3.5056737e-01
4.0239218e-01
9.4233498e-02
2.9264271e-01
4.0056419e-01
1.4087588e-01
2.3952277e-01
3.4534687e-01
3.9663881e-01
1.8695538e-01
0.0000000e+00
4.4317195e-01
4.4726580e-01
4.5536872e-02
9.0886340e-02
4.4754922e-01
2.8531677e-01
3.3845347e-01
2.3228793e-01
3.9072496e-01
4.4551042e-01
1.3586964e-01
1.8030781e-01
4.4113705e-01
3.2997188e-01
2.7669114e-01
3.8291609e-01
0.0000000e+00
4.8614576e-01
4.9063131e-01
4.3663293e-02
4.9093613e-01
8.7145381e-02
2.2402240e-01
4.3454963e-01
4.8869202e-01
1.3027443e-01
3.1998506e-01
3.7330765e-01
4.8388460e-01
1.7287812e-01
4.2585149e-01
2.6683626e-01
5.2720100e-01
0.0000000e+00
5.3205836e-01
4.1604061e-02
5.3238088e-01
8.3033808e-02
2.1478420e-01
4.7664523e-01
3.6199299e-01
5.2993727e-01
1.2412497e-01
4.1514799e-01
3.0857420e-01
4.6708629e-01
2.5582129e-01
1.6471244e-01
5.2471083e-01
5.6617564e-01
0.0000000e+00
5.7138312e-01
4.0254241e-01
3.4906381e-01
3.9370708e-02
5.1684284e-01
2.0463078e-01
7.8574657e-02
5.7171929e-01
2.9581934e-01
4.5532236e-01
5.6908238e-01
1.1745576e-01
5.0645381e-01
2.4371476e-01
1.5585671e-01
5.6345296e-01
3.8813618e-01
4.4146582e-01
3.3461046e-01
1.9361939e-01
5.5498123e-01
0.0000000e+00
6.0291576e-01
2.8179991e-01
4.9366668e-01
3.6974780e-02
6.0845023e-01
7.3791027e-02
6.0879564e-01
1.1030143e-01
6.0597193e-01
5.4379505e-01
2.3058526e-01
3.7202951e-01
4.2562696e-01
4.7860178e-01
1.4635709e-01
5.9995675e-01
3.1872299e-01
5.3002429e-01
2.6659572e-01
1.8180776e-01
5.9090799e-01
6.3727653e-01
0.0000000e+00
3.4427937e-02
6.4311320e-01
6.4346331e-01
6.8706229e-02
4.0791520e-01
3.5432273e-01
4.6137741e-01
6.4045995e-01
5.7895952e-01
2.1650207e-01
1.0269697e-01
5.1379621e-01
3.0149239e-01
1.3626027e-01
6.3407737e-01
2.5028765e-01
5.6424713e-01
4.4211110e-01
1.6925436e-01
3.8844046e-01
6.2448001e-01
3.3511764e-01
6.6912222e-01
4.9523574e-01
0.0000000e+00
6.7523533e-01
3.1741995e-02
6.3343912e-02
6.7558557e-01
2.0153558e-01
6.1180651e-01
2.8301126e-01
5.4690349e-01
9.4677895e-02
6.7241037e-01
1.2561370e-01
6.6568017e-01
4.2092156e-01
4.7446725e-01
3.6731520e-01
2.3295835e-01
5.9619713e-01
1.5601869e-01
5.2705866e-01
3.1451893e-01
6.5556473e-01
0.0000000e+00
6.9832724e-01
2.8928962e-02
7.0469010e-01
5.7728115e-02
2.6337487e-01
7.0503610e-01
5.7778823e-01
1.8575761e-01
6.4220595e-01
3.9793116e-01
8.6280294e-02
4.5161679e-01
7.0169783e-01
3.4465611e-01
5.0484186e-01
1.1446562e-01
6.9464147e-01
2.1469229e-01
6.2574703e-01
5.5671310e-01
2.9263490e-01
1.4216129e-01
6.8404067e-01
4.2681611e-01
2.4268106e-01
6.0632634e-01
0.0000000e+00
7.2477621e-01
2.6001042e-02
4.8038521e-01
3.7326896e-01
7.3136163e-01
1.6924128e-01
6.7003936e-01
5.1883262e-02
7.3169959e-01
5.3310406e-01
3.2058573e-01
7.7540860e-02
7.2820824e-01
1.0286504e-01
7.2084916e-01
6.5278190e-01
1.9557571e-01
2.6957807e-01
5.8407825e-01
4.5382598e-01
4.0020421e-01
1.2774369e-01
7.0979851e-01
3.4707126e-01
5.0709534e-01
2.2103006e-01
6.3240659e-01
7.4836487e-01
0.0000000e+00
7.5514537e-01
2.2970632e-02
2.9523203e-01
1.5206088e-01
5.5913526e-01
6.9520080e-01
7.5547224e-01
4.5834143e-02
7.5183922e-01
6.8496808e-02
2.4546383e-01
6.0904688e-01
1.7569613e-01
4.2531869e-01
6.7719990e-01
9.0861663e-02
7.4420309e-01
3.7193754e-01
4.7883287e-01
3.1948727e-01
5.3163397e-01
7.3274136e-01
1.1282815e-01
6.5593207e-01
1.9852337e-01
5.8283377e-01
2.6872948e-01
7.1759766e-01
1.3429147e-01
7.6900005e-01
0.0000000e+00
7.7594823e-01
1.9850286e-02
3.9605867e-02
7.7626199e-01
4.4846028e-01
3.9501670e-01
5.0170857e-01
3.4217295e-01
7.7250051e-01
2.2040942e-01
5.9185777e-02
6.3152730e-01
6.9891346e-01
1.5514173e-01
2.9066706e-01
7.6461577e-01
5.5389702e-01
7.8505695e-02
9.7477488e-02
7.5278538e-01
6.7682093e-01
1.7526278e-01
2.4121214e-01
6.0411268e-01
4.1621283e-01
4.6956119e-01
3.6315674e-01
1.1600856e-01
7.3715097e-01
3.1112087e-01
7.8660035e-01
0.0000000e+00
5.2239293e-01
7.9368919e-01
1.6652679e-02
7.9398888e-01
3.3223756e-02
6.5144420e-01
1.9453096e-01
7.9011416e-01
4.9645703e-02
1.3400087e-01
7.1785009e-01
5.7381612e-01
2.6077861e-01
6.5847613e-02
7.8201210e-01
3.8212040e-01
4.3520314e-01
2.1281222e-01
6.2290186e-01
6.9500804e-01
1.5134960e-01
4.8836416e-01
3.2981965e-01
8.1754729e-02
7.6985979e-01
2.7892464e-01
5.4076171e-01
7.5379586e-01
9.7287789e-02
8.0109632e-01
0.0000000e+00
8.0829924e-01
1.3390571e-02
1.6794205e-01
6.6874039e-01
8.0858529e-01
2.6713273e-02
2.2997148e-01
5.9133518e-01
1.1236183e-01
7.3395252e-01
8.0461454e-01
3.9942068e-01
3.9914653e-02
3.4690168e-01
4.5243314e-01
7.9632962e-01
5.2937962e-02
5.0516343e-01
2.9552636e-01
6.3915318e-01
1.8365693e-01
1.2688506e-01
7.1044779e-01
6.5722786e-02
7.8390640e-01
5.5678564e-01
2.4580470e-01
7.6748037e-01
7.8204371e-02
1.4075571e-01
3.6063027e-01
4.1305107e-01
6.8337858e-01
1.9835402e-01
6.0635245e-01
0.0000000e+00
8.1243068e-01
1.0076771e-02
8.1972182e-01
4.6560150e-01
3.0927956e-01
8.1999594e-01
2.0099951e-02
7.4717873e-01
9.0312503e-02
8.1594831e-01
3.0030696e-02
2.6036048e-01
5.1989383e-01
3.9827101e-02
8.0751777e-01
1.5387045e-01
6.5286100e-01
1.0196929e-01
7.2310853e-01
2.1195066e-01
5.7055682e-01
7.9487902e-01
4.9443997e-02
3.7425902e-01
3.2301441e-01
4.2694780e-01
7.7816463e-01
4.7905588e-01
2.7244672e-01
5.8832485e-02
6.1885601e-01
1.6607814e-01
6.9536239e-01
1.1308882e-01
8.2055879e-01
0.0000000e+00
6.7241210e-03
2.2354315e-01
5.3019542e-01
8.2791281e-01
7.5749719e-01
6.7938879e-02
1.3409344e-02
8.2817787e-01
2.0031836e-02
8.2407427e-01
1.2355950e-01
6.6395748e-01
5.8205825e-01
1.7740905e-01
8.1553793e-01
3.3535075e-01
2.6565045e-02
3.8717943e-01
7.3297858e-01
7.6702774e-02
4.3926239e-01
2.8467727e-01
8.0274242e-01
3.2979794e-02
2.3516762e-01
4.9078286e-01
1.3332146e-01
6.2912017e-01
3.9244201e-02
8.5053012e-02
7.0468867e-01
7.8581804e-01
5.4069519e-01
1.8705706e-01
0.0000000e+00
8.2544851e-01
8.3284068e-01
3.3455046e-03
4.5323346e-02
7.6488429e-01
3.4610990e-01
8.3310050e-01
6.6670626e-03
2.9556280e-01
3.9824903e-01
9.2896216e-02
6.7265886e-01
8.2896322e-01
5.8875448e-01
1.4177302e-01
9.9560637e-03
2.4570614e-01
4.4996169e-01
1.3201574e-02
8.2036287e-01
7.4003929e-01
5.1178109e-02
5.0062865e-01
1.9716817e-01
8.0747205e-01
1.6390739e-02
6.3703269e-01
1.0012811e-01
5.4948401e-01
1.5051062e-01
5.6762580e-02
7.1136254e-01
7.9041940e-01
1.9509284e-02
0.0000000e+00
0.0000000e+00
0.0000000e+00
0.0000000e+00
2.2542220e-02
0.0000000e+00
8.2708055e-01
7.6932204e-01
4.5918801e-01
2.0650801e-01
-4.6132922e-05
8.3448654e-01
5.9591585e-01
1.0623194e-01
8.3474559e-01
-1.0116431e-04
6.2010542e-02
6.7888623e-01
-1.5846091e-04
8.3059788e-01
5.0867438e-01
1.5876219e-01
7.4427521e-01
2.5475087e-02
-2.1337060e-04
8.2197666e-01
0.0000000e+00
0.0000000e+00
6.6833518e-02
8.0905396e-01
-2.6256865e-04
0.0000000e+00
6.4280272e-01
1.1352478e-01
5.5643851e-01
0.0000000e+00
0.0000000e+00
7.1535635e-01
2.8296139e-02
7.9195720e-01
-3.0319489e-04
0.0000000e+00
0.0000000e+00
7.0799269e-02
6.0124618e-01
-3.3140977e-04
7.7080172e-01
6.8260342e-01
3.0995622e-02
8.2544851e-01
0.0000000e+00
8.3284414e-01
-3.4377680e-03
-6.8694232e-03
5.1537085e-01
1.2053940e-01
8.3310717e-01
0.0000000e+00
-1.0273223e-02
8.2897282e-01
0.0000000e+00
0.0000000e+00
-3.3923116e-04
7.4567914e-01
0.0000000e+00
8.2037455e-01
-1.3629147e-02
3.3555832e-02
6.4624423e-01
0.0000000e+00
0.0000000e+00
5.6134653e-01
7.6136634e-02
-1.6918147e-02
8.0748451e-01
7.1665901e-01
-3.0535733e-04
0.0000000e+00
0.0000000e+00
7.9042995e-01
-2.0121312e-02
6.0459870e-01
3.5642531e-02
0.0000000e+00
0.0000000e+00
0.0000000e+00
0.0000000e+00
-2.3218958e-02
7.6932561e-01
-1.6453647e-04
6.8375671e-01
0.0000000e+00
0.0000000e+00
8.2055879e-01
0.0000000e+00
-6.8163099e-03
8.2791990e-01
0.0000000e+00
8.2819164e-01
-1.3611633e-02
8.2409418e-01
-2.0349337e-02
0.0000000e+00
0.0000000e+00
7.4426144e-01
-2.6189759e-02
8.1556278e-01
3.8966179e-02
5.6444913e-01
-2.6994294e-02
6.4711660e-01
3.1604405e-04
8.0277008e-01
-3.3512075e-02
0.0000000e+00
0.0000000e+00
7.1530396e-01
-2.9011717e-02
0.0000000e+00
0.0000000e+00
7.8584456e-01
0.0000000e+00
0.0000000e+00
-3.9868142e-02
2.0472691e-03
6.0468799e-01
0.0000000e+00
0.0000000e+00
0.0000000e+00
0.0000000e+00
6.8246412e-01
-3.1668685e-02
7.6490241e-01
-4.6027280e-02
0.0000000e+00
8.1243068e-01
8.1973279e-01
-1.0168652e-02
0.0000000e+00
0.0000000e+00
-2.0301662e-02
8.2001746e-01
8.1597972e-01
7.4003518e-01
-3.0347792e-02
-5.1953956e-02
5.6434053e-01
3.3978894e-03
-3.4218661e-02
6.4591151e-01
-4.0257093e-02
0.0000000e+00
8.0755794e-01
0.0000000e+00
0.0000000e+00
0.0000000e+00
0.0000000e+00
0.0000000e+00
0.0000000e+00
-4.9979962e-02
7.9492599e-01
7.1130699e-01
-5.7615500e-02
0.0000000e+00
0.0000000e+00
-3.6947448e-02
6.0380948e-01
7.7821493e-01
-5.9466179e-02
0.0000000e+00
0.0000000e+00
6.7872584e-01
-6.2991552e-02
0.0000000e+00
0.0000000e+00
-6.8664059e-02
7.5754523e-01
0.0000000e+00
8.0109632e-01
0.0000000e+00
0.0000000e+00
8.0831432e-01
-1.3481728e-02
-2.6913464e-02
0.0000000e+00
0.0000000e+00
-3.7846204e-02
5.6336039e-01
8.0861509e-01
7.3301351e-01
-7.7519558e-02
6.4240557e-01
0.0000000e+00
0.0000000e+00
8.0465865e-01
-4.0229741e-02
-6.8124861e-02
0.0000000e+00
0.0000000e+00
-5.3366158e-02
7.9638726e-01
-8.5978098e-02
0.0000000e+00
7.0469666e-01
0.0000000e+00
-6.6258274e-02
7.8397644e-01
0.0000000e+00
0.0000000e+00
6.0040110e-01
-7.2930165e-02
-7.8840397e-02
7.6756114e-01
0.0000000e+00
0.0000000e+00
0.0000000e+00
6.7258716e-01
0.0000000e+00
-9.3973674e-02
0.0000000e+00
-9.1044068e-02
7.4726778e-01
0.0000000e+00
0.0000000e+00
5.5998117e-01
-7.6056853e-02
0.0000000e+00
7.8660035e-01
0.0000000e+00
0.0000000e+00
-1.6742561e-02
7.9370856e-01
0.0000000e+00
0.0000000e+00
7.9402739e-01
-3.3421181e-02
-1.0279640e-01
-1.0148527e-01
6.3687241e-01
7.2320557e-01
7.9017168e-01
-4.9956650e-02
0.0000000e+00
0.0000000e+00
-6.6270635e-02
7.8208852e-01
6.9545931e-01
-1.1401597e-01
0.0000000e+00
0.0000000e+00
0.0000000e+00
-8.2284465e-02
0.0000000e+00
7.6995498e-01
-1.0803582e-01
5.9533471e-01
0.0000000e+00
0.0000000e+00
0.0000000e+00
0.0000000e+00
7.5391006e-01
-9.7917691e-02
0.0000000e+00
0.0000000e+00
6.6413045e-01
-1.2461375e-01
-1.1308627e-01
0.0000000e+00
0.0000000e+00
7.3408711e-01
-1.1340049e-01
5.5517590e-01
0.0000000e+00
0.0000000e+00
7.6900005e-01
0.0000000e+00
-1.9938283e-02
6.2916368e-01
-1.3443980e-01
7.7597201e-01
7.1060514e-01
-1.2770002e-01
0.0000000e+00
0.0000000e+00
-3.9799169e-02
7.7630931e-01
0.0000000e+00
0.0000000e+00
0.0000000e+00
7.7257168e-01
-5.9490297e-02
0.0000000e+00
0.0000000e+00
7.6471120e-01
-7.8920074e-02
0.0000000e+00
0.0000000e+00
6.8357140e-01
-1.4165902e-01
0.0000000e+00
0.0000000e+00
5.9127629e-01
-1.4341058e-01
0.0000000e+00
0.0000000e+00
-9.7996421e-02
7.5290608e-01
-1.1662529e-01
7.3729879e-01
0.0000000e+00
6.5308255e-01
0.0000000e+00
-1.5484822e-01
0.0000000e+00
0.0000000e+00
-1.5057403e-01
5.4881954e-01
7.1802849e-01
-1.3470873e-01
0.0000000e+00
0.0000000e+00
0.0000000e+00
0.0000000e+00
0.0000000e+00
0.0000000e+00
6.1923546e-01
-1.6711807e-01
0.0000000e+00
7.4836487e-01
-2.3056144e-02
0.0000000e+00
0.0000000e+00
6.9522351e-01
-1.5214245e-01
7.5517333e-01
-4.6022005e-02
7.5552821e-01
-6.8792731e-02
7.5192362e-01
0.0000000e+00
0.0000000e+00
5.0745755e-01
-1.5763785e-01
-9.1264248e-02
0.0000000e+00
0.0000000e+00
7.4431694e-01
-1.6881268e-01
6.6900331e-01
5.8224392e-01
-1.7834106e-01
-1.1333203e-01
7.3288637e-01
0.0000000e+00
0.0000000e+00
0.0000000e+00
0.0000000e+00
0.0000000e+00
7.1777683e-01
-1.3488966e-01
-1.8459092e-01
6.3948125e-01
0.0000000e+00
0.0000000e+00
0.0000000e+00
0.0000000e+00
-1.8767208e-01
5.4046476e-01
0.0000000e+00
0.0000000e+00
6.9913173e-01
-1.5582711e-01
0.0000000e+00
0.0000000e+00
-1.9933969e-01
6.0679579e-01
-1.7602846e-01
6.7708606e-01
0.0000000e+00
7.2477621e-01
0.0000000e+00
0.0000000e+00
7.3139364e-01
-2.6083525e-02
-5.2064493e-02
7.3176360e-01
-1.9663909e-01
4.9975881e-01
0.0000000e+00
0.0000000e+00
7.2830498e-01
-7.7826284e-02
-1.9536950e-01
-2.1285564e-01
0.0000000e+00
0.0000000e+00
-1.0325314e-01
7.2097987e-01
5.7098705e-01
6.5176785e-01
0.0000000e+00
0.0000000e+00
0.0000000e+00
0.0000000e+00
-1.2822904e-01
7.0996559e-01
0.0000000e+00
0.0000000e+00
-2.1371473e-01
6.2330216e-01
0.0000000e+00
-1.5263645e-01
6.9540787e-01
0.0000000e+00
0.0000000e+00
0.0000000e+00
-2.2516324e-01
5.3272611e-01
0.0000000e+00
0.0000000e+00
6.7745256e-01
-1.7635474e-01
-2.3091641e-01
0.0000000e+00
0.0000000e+00
5.9181643e-01
0.0000000e+00
6.5623885e-01
-1.9925849e-01
0.0000000e+00
0.0000000e+00
0.0000000e+00
0.0000000e+00
0.0000000e+00
6.9832724e-01
-2.3526701e-01
-2.9007947e-02
4.9044949e-01
7.0472574e-01
-5.7901699e-02
0.0000000e+00
0.0000000e+00
7.0510739e-01
-8.6553603e-02
0.0000000e+00
0.0000000e+00
7.0180553e-01
-2.4680053e-01
5.5743659e-01
0.0000000e+00
0.0000000e+00
6.3190031e-01
-2.2121535e-01
-1.1483700e-01
6.9478714e-01
-1.4262529e-01
6.8422681e-01
0.0000000e+00
0.0000000e+00
-2.4538529e-01
4.4934389e-01
-2.4208447e-01
0.0000000e+00
0.0000000e+00
6.0456866e-01
6.7026997e-01
-1.6979088e-01
-2.6126707e-01
5.2038628e-01
0.0000000e+00
0.0000000e+00
0.0000000e+00
0.0000000e+00
-1.9620389e-01
0.0000000e+00
0.0000000e+00
6.5306276e-01
5.7437450e-01
-2.6171169e-01
0.0000000e+00
0.0000000e+00
0.0000000e+00
0.0000000e+00
-2.2173080e-01
-2.7321997e-01
4.7919855e-01
6.3274628e-01
0.0000000e+00
0.0000000e+00
0.0000000e+00
6.6912222e-01
0.0000000e+00
0.0000000e+00
-3.1817097e-02
6.7527413e-01
-6.3509002e-02
6.7566317e-01
-2.7994612e-01
5.4147732e-01
-9.4937734e-02
6.7252755e-01
-2.4623305e-01
6.0945725e-01
6.6583848e-01
0.0000000e+00
0.0000000e+00
-1.2596652e-01
4.3906465e-01
-2.8484219e-01
6.5576661e-01
-1.5645899e-01
0.0000000e+00
0.0000000e+00
0.0000000e+00
0.0000000e+00
0.0000000e+00
-2.6956514e-01
5.8333045e-01
-2.9653212e-01
0.0000000e+00
0.0000000e+00
5.0591844e-01
0.0000000e+00
6.4245540e-01
0.0000000e+00
-1.8627840e-01
0.0000000e+00
0.0000000e+00
-2.1528664e-01
6.2604964e-01
-2.9157531e-01
5.5450535e-01
0.0000000e+00
0.0000000e+00
0.0000000e+00
0.0000000e+00
-3.1156924e-01
4.6833828e-01
0.0000000e+00
0.0000000e+00
-2.4334326e-01
6.0669005e-01
6.3727653e-01
0.0000000e+00
6.4315468e-01
-3.4498852e-02
-6.8862140e-02
6.4354610e-01
0.0000000e+00
0.0000000e+00
-3.1209517e-01
5.2311927e-01
0.0000000e+00
0.0000000e+00
-1.0294227e-01
6.4058483e-01
0.0000000e+00
0.0000000e+00
5.8451384e-01
-2.7030444e-01
6.3424569e-01
-1.3659303e-01
0.0000000e+00
0.0000000e+00
0.0000000e+00
0.0000000e+00
-3.2336682e-01
4.2710048e-01
6.2469417e-01
-1.6966906e-01
0.0000000e+00
0.0000000e+00
-2.9602227e-01
5.5965739e-01
0.0000000e+00
0.0000000e+00
4.8938045e-01
-3.3098584e-01
6.1207002e-01
-2.0202523e-01
0.0000000e+00
0.0000000e+00
5.9651512e-01
-2.3351598e-01
3.8715512e-01
-3.3550897e-01
-3.2034326e-01
5.3225905e-01
0.0000000e+00
0.0000000e+00
4.5329756e-01
-3.4792793e-01
0.0000000e+00
0.0000000e+00
0.0000000e+00
5.7816768e-01
0.0000000e+00
0.0000000e+00
-2.6399466e-01
0.0000000e+00
0.0000000e+00
-3.4311262e-01
5.0246984e-01
0.0000000e+00
6.0291576e-01
6.0849375e-01
-3.7041269e-02
0.0000000e+00
0.0000000e+00
6.0888249e-01
-7.3937230e-02
5.5716324e-01
-2.9331303e-01
-1.1053133e-01
6.0610265e-01
0.0000000e+00
0.0000000e+00
-3.6319265e-01
4.1569042e-01
0.0000000e+00
0.0000000e+00
-1.4666863e-01
0.0000000e+00
0.0000000e+00
6.0013252e-01
4.7043815e-01
5.9113085e-01
-1.8219538e-01
-3.6415783e-01
-3.2132071e-01
5.3363639e-01
0.0000000e+00
0.0000000e+00
5.7923251e-01
0.0000000e+00
0.0000000e+00
-2.1695876e-01
0.0000000e+00
0.0000000e+00
-3.7493014e-01
3.7493113e-01
0.0000000e+00
0.0000000e+00
-3.4786564e-01
5.0772500e-01
0.0000000e+00
0.0000000e+00
5.6457466e-01
-2.5080633e-01
-3.8336578e-01
4.3640846e-01
0.0000000e+00
0.0000000e+00
0.0000000e+00
0.0000000e+00
5.4729128e-01
-2.8358579e-01
-3.7279326e-01
4.7957218e-01
0.0000000e+00
5.6617564e-01
-3.9432604e-02
5.7142812e-01
0.0000000e+00
0.0000000e+00
-3.8715732e-01
3.3550936e-01
-7.8710765e-02
5.7180887e-01
5.2751410e-01
-4.0040845e-01
4.0040821e-01
0.0000000e+00
0.0000000e+00
-3.1514475e-01
5.6921697e-01
-1.1766964e-01
0.0000000e+00
5.6363350e-01
-1.5614617e-01
0.0000000e+00
0.0000000e+00
4.4933960e-01
0.0000000e+00
0.0000000e+00
-3.9595467e-01
0.0000000e+00
0.0000000e+00
-3.4533069e-01
5.5520934e-01
-1.9397889e-01
5.0537401e-01
0.0000000e+00
0.0000000e+00
-2.3100777e-01
5.4407310e-01
0.0000000e+00
0.0000000e+00
-4.1569132e-01
3.6319280e-01
0.0000000e+00
0.0000000e+00
0.0000000e+00
4.8100400e-01
-3.7399137e-01
0.0000000e+00
4.1718674e-01
-4.1718656e-01
-2.6707399e-01
5.3035581e-01
0.0000000e+00
5.1418579e-01
0.0000000e+00
-3.0201995e-01
-4.0097645e-01
0.0000000e+00
4.5454302e-01
0.0000000e+00
-4.2710379e-01
3.2336694e-01
0.0000000e+00
0.0000000e+00
0.0000000e+00
0.0000000e+00
-4.3640849e-01
0.0000000e+00
5.2720100e-01
3.8336572e-01
5.3210407e-01
-4.1661244e-02
5.3247184e-01
0.0000000e+00
-3.3568922e-01
0.0000000e+00
-8.3159536e-02
4.9568906e-01
5.3007364e-01
-1.2432238e-01
0.0000000e+00
0.0000000e+00
-1.6497923e-01
5.2489328e-01
0.0000000e+00
0.0000000e+00
4.2613792e-01
-4.2613739e-01
4.7499081e-01
-3.6792684e-01
5.1707256e-01
-2.0496146e-01
-4.3907371e-01
2.8484079e-01
-4.5329830e-01
3.4792784e-01
0.0000000e+00
0.0000000e+00
0.0000000e+00
0.0000000e+00
-2.4410236e-01
5.0673264e-01
-4.4933894e-01
4.5221770e-01
3.9595485e-01
-3.9858013e-01
0.0000000e+00
4.9399722e-01
-2.8223714e-01
0.0000000e+00
0.0000000e+00
0.0000000e+00
0.0000000e+00
0.0000000e+00
0.0000000e+00
-3.1920308e-01
-4.6834087e-01
3.1156889e-01
4.7898749e-01
-4.4935855e-01
0.0000000e+00
0.0000000e+00
2.4538468e-01
4.2750031e-01
-4.2749968e-01
3.6415783e-01
-4.7043738e-01
0.0000000e+00
0.0000000e+00
0.0000000e+00
4.8614576e-01
0.0000000e+00
0.0000000e+00
4.9067703e-01
-4.3715689e-02
4.6182239e-01
-3.5483971e-01
-8.7260529e-02
4.9102694e-01
4.8882797e-01
-1.3045506e-01
4.0097684e-01
-4.5454213e-01
-1.7312185e-01
4.8406607e-01
0.0000000e+00
0.0000000e+00
-4.7920495e-01
2.7321884e-01
-3.8898948e-01
4.4261995e-01
0.0000000e+00
0.0000000e+00
3.3098575e-01
0.0000000e+00
0.0000000e+00
4.7687292e-01
-2.1508570e-01
-4.8937973e-01
0.0000000e+00
0.0000000e+00
4.6736151e-01
-2.5617370e-01
0.0000000e+00
0.0000000e+00
3.7279344e-01
-4.7957087e-01
0.0000000e+00
0.0000000e+00
4.2149881e-01
-4.2149821e-01
4.5564699e-01
-2.9621544e-01
0.0000000e+00
0.0000000e+00
2.3526725e-01
-4.9045873e-01
2.9653189e-01
-5.0591803e-01
-3.3504331e-01
4.4184226e-01
-4.5221683e-01
3.9858055e-01
0.0000000e+00
0.0000000e+00
0.0000000e+00
0.0000000e+00
-5.0246799e-01
3.4311265e-01
-3.7249291e-01
0.0000000e+00
4.4317195e-01
4.2605808e-01
0.0000000e+00
-4.5584429e-02
4.4731072e-01
0.0000000e+00
0.0000000e+00
4.4763833e-01
-9.0990774e-02
0.0000000e+00
0.0000000e+00
0.0000000e+00
-1.3603327e-01
-4.8100272e-01
0.0000000e+00
3.7399164e-01
4.4564360e-01
-5.2038640e-01
2.6126671e-01
-4.9976718e-01
1.9663931e-01
-1.8052827e-01
4.4131437e-01
3.1209508e-01
-5.2311671e-01
0.0000000e+00
0.0000000e+00
-4.0840358e-01
4.0840402e-01
-2.2429453e-01
4.3477148e-01
0.0000000e+00
0.0000000e+00
0.0000000e+00
0.0000000e+00
3.4786579e-01
-5.0772303e-01
-2.6715347e-01
4.2611864e-01
3.8898984e-01
-4.4261923e-01
-5.3272599e-01
2.2516328e-01
-3.0892950e-01
4.1546169e-01
0.0000000e+00
0.0000000e+00
-5.4147357e-01
2.7994597e-01
1.5763742e-01
-5.0746626e-01