# vtk DataFile Version 4.0
vtk output
ASCII
DATASET UNSTRUCTURED_GRID
POINTS 2601 float
0.0000000e+00 0.0000000e+00 0.0000000e+00 
0.0000000e+00 2.0000000e-02 0.0000000e+00 
2.0000000e-02 0.0000000e+00 0.0000000e+00 
2.0000000e-02 2.0000000e-02 0.0000000e+00 
3.9999999e-02 0.0000000e+00 0.0000000e+00 
0.0000000e+00 3.9999999e-02 0.0000000e+00 
3.9999999e-02 2.0000000e-02 0.0000000e+00 
2.0000000e-02 3.9999999e-02 0.0000000e+00 
3.9999999e-02 3.9999999e-02 0.0000000e+00 
5.9999999e-02 0.0000000e+00 0.0000000e+00 
0.0000000e+00 5.9999999e-02 0.0000000e+00 
5.9999999e-02 2.0000000e-02 0.0000000e+00 
2.0000000e-02 5.9999999e-02 0.0000000e+00 
3.9999999e-02 5.9999999e-02 0.0000000e+00 
5.9999999e-02 3.9999999e-02 0.0000000e+00 
7.9999998e-02 0.0000000e+00 0.0000000e+00 
0.0000000e+00 7.9999998e-02 0.0000000e+00 
7.9999998e-02 2.0000000e-02 0.0000000e+00 
2.0000000e-02 7.9999998e-02 0.0000000e+00 
5.9999999e-02 5.9999999e-02 0.0000000e+00 
7.9999998e-02 3.9999999e-02 0.0000000e+00 
3.9999999e-02 7.9999998e-02 0.0000000e+00 
5.9999999e-02 7.9999998e-02 0.0000000e+00 
7.9999998e-02 5.9999999e-02 0.0000000e+00 
1.0000000e-01 0.0000000e+00 0.0000000e+00 
0.0000000e+00 1.0000000e-01 0.0000000e+00 
1.0000000e-01 2.0000000e-02 0.0000000e+00 
2.0000000e-02 1.0000000e-01 0.0000000e+00 
3.9999999e-02 1.0000000e-01 0.0000000e+00 
1.0000000e-01 3.9999999e-02 0.0000000e+00 
7.9999998e-02 7.9999998e-02 0.0000000e+00 
1.0000000e-01 5.9999999e-02 0.0000000e+00 
5.9999999e-02 1.0000000e-01 0.0000000e+00 
1.2000000e-01 0.0000000e+00 0.0000000e+00 
0.0000000e+00 1.2000000e-01 0.0000000e+00 
1.2000000e-01 2.0000000e-02 0.0000000e+00 
2.0000000e-02 1.2000000e-01 0.0000000e+00 
1.2000000e-01 3.9999999e-02 0.0000000e+00 
3.9999999e-02 1.2000000e-01 0.0000000e+00 
1.0000000e-01 7.9999998e-02 0.0000000e+00 
7.9999998e-02 1.0000000e-01 0.0000000e+00 
1.2000000e-01 5.9999999e-02 0.0000000e+00 
5.9999999e-02 1.2000000e-01 0.0000000e+00 
0.0000000e+00 1.4000000e-01 0.0000000e+00 
1.4000000e-01 0.0000000e+00 0.0000000e+00 
1.0000000e-01 1.0000000e-01 0.0000000e+00 
2.0000000e-02 1.4000000e-01 0.0000000e+00 
1.4000000e-01 2.0000000e-02 0.0000000e+00 
1.2000000e-01 7.9999998e-02 0.0000000e+00 
7.9999998e-02 1.2000000e-01 0.0000000e+00 
3.9999999e-02 1.4000000e-01 0.0000000e+00 
1.4000000e-01 3.9999999e-02 0.0000000e+00 
1.4000000e-01 5.9999999e-02 0.0000000e+00 
5.9999999e-02 1.4000000e-01 0.0000000e+00 
1.2000000e-01 1.0000000e-01 0.0000000e+00 
1.0000000e-01 1.2000000e-01 0.0000000e+00 
1.6000000e-01 0.0000000e+00 0.0000000e+00 
0.0000000e+00 1.6000000e-01 0.0000000e+00 
1.6000000e-01 2.0000000e-02 0.0000000e+00 
7.9999998e-02 1.4000000e-01 0.0000000e+00 
2.0000000e-02 1.6000000e-01 0.0000000e+00 
1.4000000e-01 7.9999998e-02 0.0000000e+00 
1.6000000e-01 3.9999999e-02 0.0000000e+00 
3.9999999e-02 1.6000000e-01 0.0000000e+00 
1.2000000e-01 1.2000000e-01 0.0000000e+00 
1.6000000e-01 5.9999999e-02 0.0000000e+00 
5.9999999e-02 1.6000000e-01 0.0000000e+00 
1.0000000e-01 1.4000000e-01 0.0000000e+00 
1.4000000e-01 1.0000000e-01 0.0000000e+00 
1.6000000e-01 7.9999998e-02 0.0000000e+00 
7.9999998e-02 1.6000000e-01 0.0000000e+00 
0.0000000e+00 1.8000001e-01 0.0000000e+00 
1.8000001e-01 0.0000000e+00 0.0000000e+00 
1.8000001e-01 2.0000000e-02 0.0000000e+00 
2.0000000e-02 1.8000001e-01 0.0000000e+00 
3.9999999e-02 1.8000001e-01 0.0000000e+00 
1.8000001e-01 3.9999999e-02 0.0000000e+00 
1.2000000e-01 1.4000000e-01 0.0000000e+00 
1.4000000e-01 1.2000000e-01 0.0000000e+00 
1.0000000e-01 1.6000000e-01 0.0000000e+00 
1.6000000e-01 1.0000000e-01 0.0000000e+00 
1.8000001e-01 5.9999999e-02 0.0000000e+00 
5.9999999e-02 1.8000001e-01 0.0000000e+00 
7.9999998e-02 1.8000001e-01 0.0000000e+00 
1.8000001e-01 7.9999998e-02 0.0000000e+00 
1.4000000e-01 1.4000000e-01 0.0000000e+00 
1.2000000e-01 1.6000000e-01 0.0000000e+00 
1.6000000e-01 1.2000000e-01 0.0000000e+00 
0.0000000e+00 2.0000000e-01 0.0000000e+00 
2.0000000e-01 0.0000000e+00 0.0000000e+00 
2.0000000e-01 2.0000000e-02 0.0000000e+00 
2.0000000e-02 2.0000000e-01 0.0000000e+00 
2.0000000e-01 3.9999999e-02 0.0000000e+00 
3.9999999e-02 2.0000000e-01 0.0000000e+00 
1.0000000e-01 1.8000001e-01 0.0000000e+00 
1.8000001e-01 1.0000000e-01 0.0000000e+00 
2.0000000e-01 5.9999999e-02 0.0000000e+00 
5.9999999e-02 2.0000000e-01 0.0000000e+00 
1.4000000e-01 1.6000000e-01 0.0000000e+00 
1.6000000e-01 1.4000000e-01 0.0000000e+00 
2.0000000e-01 7.9999998e-02 0.0000000e+00 
7.9999998e-02 2.0000000e-01 0.0000000e+00 
1.8000001e-01 1.2000000e-01 0.0000000e+00 
1.2000000e-01 1.8000001e-01 0.0000000e+00 
2.2000000e-01 0.0000000e+00 0.0000000e+00 
0.0000000e+00 2.2000000e-01 0.0000000e+00 
2.2000000e-01 2.0000000e-02 0.0000000e+00 
2.0000000e-02 2.2000000e-01 0.0000000e+00 
2.2000000e-01 3.9999999e-02 0.0000000e+00 
3.9999999e-02 2.2000000e-01 0.0000000e+00 
1.0000000e-01 2.0000000e-01 0.0000000e+00 
2.0000000e-01 1.0000000e-01 0.0000000e+00 
1.6000000e-01 1.6000000e-01 0.0000000e+00 
2.2000000e-01 5.9999999e-02 0.0000000e+00 
5.9999999e-02 2.2000000e-01 0.0000000e+00 
1.8000001e-01 1.4000000e-01 0.0000000e+00 
1.4000000e-01 1.8000001e-01 0.0000000e+00 
2.0000000e-01 1.2000000e-01 0.0000000e+00 
1.2000000e-01 2.0000000e-01 0.0000000e+00 
7.9999998e-02 2.2000000e-01 0.0000000e+00 
2.2000000e-01 7.9999998e-02 0.0000000e+00 
2.3999999e-01 0.0000000e+00 0.0000000e+00 
0.0000000e+00 2.3999999e-01 0.0000000e+00 
2.3999999e-01 2.0000000e-02 0.0000000e+00 
1.8000001e-01 1.6000000e-01 0.0000000e+00 
1.6000000e-01 1.8000001e-01 0.0000000e+00 
2.0000000e-02 2.3999999e-01 0.0000000e+00 
2.2000000e-01 1.0000000e-01 0.0000000e+00 
1.0000000e-01 2.2000000e-01 0.0000000e+00 
3.9999999e-02 2.3999999e-01 0.0000000e+00 
2.3999999e-01 3.9999999e-02 0.0000000e+00 
1.4000000e-01 2.0000000e-01 0.0000000e+00 
2.0000000e-01 1.4000000e-01 0.0000000e+00 
2.3999999e-01 5.9999999e-02 0.0000000e+00 
5.9999999e-02 2.3999999e-01 0.0000000e+00 
2.2000000e-01 1.2000000e-01 0.0000000e+00 
1.2000000e-01 2.2000000e-01 0.0000000e+00 
7.9999998e-02 2.3999999e-01 0.0000000e+00 
2.3999999e-01 7.9999998e-02 0.0000000e+00 
1.8000001e-01 1.8000001e-01 0.0000000e+00 
2.0000000e-01 1.6000000e-01 0.0000000e+00 
1.6000000e-01 2.0000000e-01 0.0000000e+00 
1.0000000e-01 2.3999999e-01 0.0000000e+00 
2.3999999e-01 1.0000000e-01 0.0000000e+00 
0.0000000e+00 2.5999999e-01 0.0000000e+00 
2.5999999e-01 0.0000000e+00 0.0000000e+00 
1.4000000e-01 2.2000000e-01 0.0000000e+00 
2.2000000e-01 1.4000000e-01 0.0000000e+00 
2.0000000e-02 2.5999999e-01 0.0000000e+00 
2.5999999e-01 2.0000000e-02 0.0000000e+00 
3.9999999e-02 2.5999999e-01 0.0000000e+00 
2.5999999e-01 3.9999999e-02 0.0000000e+00 
5.9999999e-02 2.5999999e-01 0.0000000e+00 
2.5999999e-01 5.9999999e-02 0.0000000e+00 
2.3999999e-01 1.2000000e-01 0.0000000e+00 
1.2000000e-01 2.3999999e-01 0.0000000e+00 
1.8000001e-01 2.0000000e-01 0.0000000e+00 
2.0000000e-01 1.8000001e-01 0.0000000e+00 
2.2000000e-01 1.6000000e-01 0.0000000e+00 
7.9999998e-02 2.5999999e-01 0.0000000e+00 
2.5999999e-01 7.9999998e-02 0.0000000e+00 
1.6000000e-01 2.2000000e-01 0.0000000e+00 
2.3999999e-01 1.4000000e-01 0.0000000e+00 
1.4000000e-01 2.3999999e-01 0.0000000e+00 
1.0000000e-01 2.5999999e-01 0.0000000e+00 
2.5999999e-01 1.0000000e-01 0.0000000e+00 
2.8000000e-01 0.0000000e+00 0.0000000e+00 
0.0000000e+00 2.8000000e-01 0.0000000e+00 
2.0000000e-02 2.8000000e-01 0.0000000e+00 
2.8000000e-01 2.0000000e-02 0.0000000e+00 
2.8000000e-01 3.9999999e-02 0.0000000e+00 
3.9999999e-02 2.8000000e-01 0.0000000e+00 
2.0000000e-01 2.0000000e-01 0.0000000e+00 
1.8000001e-01 2.2000000e-01 0.0000000e+00 
2.2000000e-01 1.8000001e-01 0.0000000e+00 
2.8000000e-01 5.9999999e-02 0.0000000e+00 
2.5999999e-01 1.2000000e-01 0.0000000e+00 
1.2000000e-01 2.5999999e-01 0.0000000e+00 
5.9999999e-02 2.8000000e-01 0.0000000e+00 
2.3999999e-01 1.6000000e-01 0.0000000e+00 
1.6000000e-01 2.3999999e-01 0.0000000e+00 
7.9999998e-02 2.8000000e-01 0.0000000e+00 
2.8000000e-01 7.9999998e-02 0.0000000e+00 
1.4000000e-01 2.5999999e-01 0.0000000e+00 
2.5999999e-01 1.4000000e-01 0.0000000e+00 
2.2000000e-01 2.0000000e-01 0.0000000e+00 
1.0000000e-01 2.8000000e-01 0.0000000e+00 
2.0000000e-01 2.2000000e-01 0.0000000e+00 
2.8000000e-01 1.0000000e-01 0.0000000e+00 
1.8000001e-01 2.3999999e-01 0.0000000e+00 
3.0000001e-01 0.0000000e+00 0.0000000e+00 
2.3999999e-01 1.8000001e-01 0.0000000e+00 
0.0000000e+00 3.0000001e-01 0.0000000e+00 
3.0000001e-01 2.0000000e-02 0.0000000e+00 
2.0000000e-02 3.0000001e-01 0.0000000e+00 
3.9999999e-02 3.0000001e-01 0.0000000e+00 
3.0000001e-01 3.9999999e-02 0.0000000e+00 
1.2000000e-01 2.8000000e-01 0.0000000e+00 
2.8000000e-01 1.2000000e-01 0.0000000e+00 
1.6000000e-01 2.5999999e-01 0.0000000e+00 
2.5999999e-01 1.6000000e-01 0.0000000e+00 
5.9999999e-02 3.0000001e-01 0.0000000e+00 
3.0000001e-01 5.9999999e-02 0.0000000e+00 
7.9999998e-02 3.0000001e-01 0.0000000e+00 
3.0000001e-01 7.9999998e-02 0.0000000e+00 
2.2000000e-01 2.2000000e-01 0.0000000e+00 
2.3999999e-01 2.0000000e-01 0.0000000e+00 
2.0000000e-01 2.3999999e-01 0.0000000e+00 
1.4000000e-01 2.8000000e-01 0.0000000e+00 
2.8000000e-01 1.4000000e-01 0.0000000e+00 
1.0000000e-01 3.0000001e-01 0.0000000e+00 
2.5999999e-01 1.8000001e-01 0.0000000e+00 
1.8000001e-01 2.5999999e-01 0.0000000e+00 
3.0000001e-01 1.0000000e-01 0.0000000e+00 
0.0000000e+00 3.1999999e-01 0.0000000e+00 
3.1999999e-01 0.0000000e+00 0.0000000e+00 
2.0000000e-02 3.1999999e-01 0.0000000e+00 
3.1999999e-01 2.0000000e-02 0.0000000e+00 
3.9999999e-02 3.1999999e-01 0.0000000e+00 
1.6000000e-01 2.8000000e-01 0.0000000e+00 
3.1999999e-01 3.9999999e-02 0.0000000e+00 
2.8000000e-01 1.6000000e-01 0.0000000e+00 
1.2000000e-01 3.0000001e-01 0.0000000e+00 
3.0000001e-01 1.2000000e-01 0.0000000e+00 
2.2000000e-01 2.3999999e-01 0.0000000e+00 
5.9999999e-02 3.1999999e-01 0.0000000e+00 
2.3999999e-01 2.2000000e-01 0.0000000e+00 
3.1999999e-01 5.9999999e-02 0.0000000e+00 
2.0000000e-01 2.5999999e-01 0.0000000e+00 
2.5999999e-01 2.0000000e-01 0.0000000e+00 
[...]
POINT_DATA 2601
FIELD FieldData 1
TEMPERATURE 1 2601  float
0.0000000e+00
0.0000000e+00
3.0249564e-02
3.0844470e-02
6.0379747e-02
0.0000000e+00
6.1565496e-02
3.1013986e-02
6.1902113e-02
9.0271637e-02
0.0000000e+00
9.2042029e-02
3.1016700e-02
6.1905790e-02
9.2542864e-02
1.1980727e-01
0.0000000e+00
1.2215385e-01
3.0836010e-02
9.2545845e-02
1.2281537e-01
6.1543327e-02
9.2001274e-02
1.2281597e-01
1.4887007e-01
0.0000000e+00
1.5178202e-01
3.0481141e-02
6.0833111e-02
1.5259996e-01
1.2208956e-01
1.5259634e-01
9.0936594e-02
1.7734535e-01
0.0000000e+00
1.8080941e-01
2.9959302e-02
1.8177865e-01
5.9789535e-02
1.5168880e-01
1.2067248e-01
1.8176863e-01
8.9373276e-02
0.0000000e+00
2.0512074e-01
1.4992239e-01
2.9279126e-02
2.0912114e-01
1.8068102e-01
1.1859314e-01
5.8429826e-02
2.1023561e-01
2.1021666e-01
8.7337069e-02
1.7856915e-01
1.4733225e-01
2.3208660e-01
0.0000000e+00
2.3660511e-01
1.1588565e-01
2.8449653e-02
2.0895015e-01
2.3785773e-01
5.6772027e-02
1.7547473e-01
2.3782681e-01
8.4854931e-02
1.4396065e-01
2.0649740e-01
2.3638266e-01
1.1258579e-01
0.0000000e+00
2.5813654e-01
2.6315242e-01
2.7480068e-02
5.4834485e-02
2.6453510e-01
1.7144789e-01
2.0290627e-01
1.3985200e-01
2.3359409e-01
2.6448867e-01
8.1954323e-02
1.0872999e-01
2.6286808e-01
1.9823447e-01
1.6654141e-01
2.2951472e-01
0.0000000e+00
2.8316769e-01
2.8865787e-01
2.6379520e-02
2.9016149e-01
5.2635480e-02
1.3505156e-01
2.5974911e-01
2.9009545e-01
7.8662597e-02
1.9254279e-01
2.2420935e-01
2.8829962e-01
1.0435463e-01
2.5519064e-01
1.6080920e-01
3.0708134e-01
0.0000000e+00
3.1302038e-01
2.5157033e-02
3.1463495e-01
5.0193064e-02
1.2960467e-01
2.8485602e-01
2.1774645e-01
3.1454474e-01
7.5006820e-02
2.4926406e-01
1.8589352e-01
2.7982819e-01
1.5430534e-01
9.9495769e-02
3.1257474e-01
3.2978308e-01
0.0000000e+00
3.3614346e-01
2.4204488e-01
2.1019627e-01
2.3821488e-02
3.0881256e-01
1.2355627e-01
4.7525004e-02
3.3785814e-01
1.7834936e-01
2.7329338e-01
3.3773881e-01
7.1013674e-02
3.0332559e-01
1.4708374e-01
9.4189018e-02
3.3559585e-01
2.3361093e-01
2.6533362e-01
2.0162988e-01
1.1695100e-01
3.3152148e-01
0.0000000e+00
3.5118333e-01
1.6997303e-01
2.9619628e-01
2.2381632e-02
3.5793573e-01
4.4648819e-02
3.5973901e-01
6.6709481e-02
3.5958540e-01
3.2558629e-01
1.3919806e-01
2.2404125e-01
2.5603360e-01
2.8751215e-01
8.8469610e-02
3.5727087e-01
1.9211873e-01
3.1787676e-01
1.6082734e-01
1.0983311e-01
3.5289136e-01
3.7119758e-01
0.0000000e+00
2.0846089e-02
3.7831107e-01
3.8019112e-01
4.1581802e-02
2.4547987e-01
2.1341586e-01
2.7736413e-01
3.7999815e-01
3.4651953e-01
1.3070178e-01
6.2120307e-02
3.0848515e-01
1.8173487e-01
8.2372472e-02
3.7751392e-01
1.5097526e-01
3.3824506e-01
2.6584542e-01
1.0224662e-01
2.3376071e-01
3.7283710e-01
2.0181617e-01
3.8974690e-01
2.9750732e-01
0.0000000e+00
3.9718932e-01
1.9223399e-02
3.8341075e-02
3.9913419e-01
1.2164829e-01
3.6604151e-01
1.7055115e-01
3.2816353e-01
5.7271935e-02
3.9889705e-01
7.5932257e-02
3.9624584e-01
2.5305220e-01
2.8504243e-01
2.2096695e-01
1.4048003e-01
3.5721862e-01
9.4235286e-02
3.1637472e-01
1.8932533e-01
3.9128086e-01
0.0000000e+00
4.0675807e-01
1.7522013e-02
4.1449645e-01
3.4943596e-02
1.5864129e-01
4.1649437e-01
3.4646615e-01
1.1209088e-01
3.8407600e-01
2.3908432e-01
5.2189939e-02
2.7119341e-01
4.1620904e-01
2.0719242e-01
3.0298212e-01
6.9183320e-02
4.1339487e-01
1.2940507e-01
3.7472323e-01
3.3388609e-01
1.7602839e-01
8.5842557e-02
4.0815267e-01
2.5606966e-01
1.4607970e-01
3.6332083e-01
0.0000000e+00
4.2216396e-01
1.5750300e-02
2.8809503e-01
2.2404762e-01
4.3016490e-01
1.0208253e-01
4.0055531e-01
3.1406146e-02
4.3220475e-01
3.1958529e-01
1.9253513e-01
4.6899624e-02
4.3186828e-01
6.2159657e-02
4.2889684e-01
3.9069396e-01
1.1781354e-01
1.6201226e-01
3.4997171e-01
2.7182817e-01
2.3978597e-01
7.7111401e-02
4.2339081e-01
2.0805195e-01
3.0367526e-01
1.3294083e-01
3.7866595e-01
4.3590376e-01
0.0000000e+00
4.4413385e-01
1.3916535e-02
1.7709507e-01
9.1675580e-02
3.3478296e-01
4.1542086e-01
4.4620544e-01
2.7745318e-02
4.4581646e-01
4.1425966e-02
1.4736383e-01
3.6457309e-01
1.0576782e-01
2.5431654e-01
4.0507603e-01
5.4894783e-02
4.4269571e-01
2.2247520e-01
2.8628424e-01
1.9121884e-01
3.1787202e-01
4.3694228e-01
6.8084061e-02
3.9245111e-01
1.1929794e-01
3.4852284e-01
1.6097638e-01
4.2862362e-01
8.0921367e-02
4.4792324e-01
0.0000000e+00
4.5634940e-01
1.2028883e-02
2.3977457e-02
4.5844388e-01
2.6752764e-01
2.3567930e-01
2.9935080e-01
2.0425668e-01
4.5800281e-01
1.3216922e-01
3.5793543e-02
3.7764531e-01
4.1782534e-01
9.3328774e-02
1.7366107e-01
4.5474347e-01
3.3062559e-01
4.7421578e-02
5.8801878e-02
4.4876280e-01
4.0463811e-01
1.0522208e-01
1.4427769e-01
3.6076385e-01
2.4765171e-01
2.7943304e-01
2.1615104e-01
6.9869883e-02
4.4012430e-01
1.8532065e-01
4.5817497e-01
0.0000000e+00
3.1103626e-01
4.6676484e-01
1.0095373e-02
4.6887478e-01
2.0118613e-02
3.8915685e-01
1.1651044e-01
4.6838433e-01
3.0026423e-02
8.0555350e-02
4.2890903e-01
3.4192011e-01
1.5551311e-01
3.9772134e-02
4.6500018e-01
2.2654712e-01
2.5800523e-01
1.2709378e-01
3.7148002e-01
4.1520134e-01
9.0781391e-02
2.8972524e-01
1.9569099e-01
4.9305018e-02
4.5881671e-01
1.6573323e-01
3.2122540e-01
4.4989309e-01
5.8569510e-02
4.6661851e-01
0.0000000e+00
4.7534057e-01
8.1238840e-03
1.0046420e-01
3.9909059e-01
4.7746029e-01
1.6184511e-02
1.3688076e-01
3.5174802e-01
6.7504220e-02
4.3830466e-01
4.7692537e-01
2.3615156e-01
2.4148092e-02
2.0518285e-01
2.6757389e-01
4.7343346e-01
3.1977616e-02
2.9894668e-01
1.7492588e-01
3.8066709e-01
1.0951374e-01
7.6041400e-02
4.2413035e-01
3.9632246e-02
4.6707621e-01
3.2993510e-01
1.4568265e-01
4.5790839e-01
4.7066558e-02
8.4103629e-02
2.1120378e-01
2.4189053e-01
4.0744117e-01
1.1781915e-01
3.6002985e-01
0.0000000e+00
4.7322050e-01
6.1221421e-03
4.8204425e-01
2.7286118e-01
1.8130484e-01
4.8416963e-01
1.2190520e-02
4.4600046e-01
5.4229692e-02
4.8359752e-01
1.8181410e-02
1.5372469e-01
3.0693489e-01
2.4068138e-02
4.8001802e-01
9.1618620e-02
3.8836145e-01
6.1063454e-02
4.3142104e-01
1.2537424e-01
3.3745643e-01
4.7352034e-01
2.9820647e-02
2.1813759e-01
1.8851295e-01
2.4913347e-01
4.6415558e-01
2.7988788e-01
1.5923335e-01
3.5404932e-02
3.6677605e-01
9.8443903e-02
4.1424778e-01
6.7504369e-02
4.7795489e-01
0.0000000e+00
4.0977355e-03
1.3091022e-01
3.1045407e-01
4.8685074e-01
4.5198950e-01
4.0782165e-02
8.1516970e-03
4.8897925e-01
1.2148645e-02
4.8837915e-01
7.3458627e-02
3.9447513e-01
3.4369311e-01
1.0472479e-01
4.8473495e-01
1.9482034e-01
1.6072778e-02
2.2489007e-01
4.3708721e-01
4.5907419e-02
2.5535357e-01
1.6559878e-01
4.7813398e-01
1.9905547e-02
1.3705760e-01
2.8591207e-01
7.8925043e-02
3.7248579e-01
2.3625424e-02
5.0727367e-02
4.1951311e-01
4.6862429e-01
3.1589064e-01
1.0926803e-01
0.0000000e+00
4.8080304e-01
4.8974222e-01
2.0581572e-03
2.7207540e-02
4.5626867e-01
1.9991793e-01
4.9187246e-01
4.0828739e-03
1.7102276e-01
2.3032318e-01
5.5170767e-02
3.9929450e-01
4.9125516e-01
3.4511089e-01
8.3035856e-02
6.0716406e-03
1.4246024e-01
2.6066130e-01
8.0198236e-03
4.8757142e-01
4.4112843e-01
3.0622734e-02
2.9087019e-01
1.1459669e-01
4.8090708e-01
9.9207787e-03
3.7668833e-01
5.9184216e-02
3.2039982e-01
8.7722182e-02
3.3836581e-02
4.2326930e-01
4.7130823e-01
1.1766061e-02
0.0000000e+00
0.0000000e+00
0.0000000e+00
0.0000000e+00
1.3545749e-02
0.0000000e+00
4.8175368e-01
4.5883521e-01
2.6514867e-01
1.1937068e-01
1.0864838e-05
4.9070796e-01
3.4882203e-01
6.2133834e-02
4.9283940e-01
-1.1967845e-06
3.6797639e-02
4.0271434e-01
-2.7913238e-05
4.9221689e-01
2.9484513e-01
9.2030331e-02
4.4354689e-01
1.5249026e-02
-6.2714069e-05
4.8852021e-01
0.0000000e+00
0.0000000e+00
3.9463166e-02
4.8183453e-01
-1.0035477e-04
0.0000000e+00
3.7977314e-01
6.6040166e-02
3.2393438e-01
0.0000000e+00
0.0000000e+00
4.2550638e-01
1.6865281e-02
4.7220489e-01
-1.3637738e-04
0.0000000e+00
0.0000000e+00
4.1358463e-02
3.5155404e-01
-1.6622967e-04
4.5968997e-01
4.0474069e-01
1.8381502e-02
4.8080304e-01
0.0000000e+00
4.8974451e-01
-2.0366593e-03
-4.0857000e-03
2.9815257e-01
6.9706127e-02
4.9187696e-01
0.0000000e+00
-6.1281831e-03
4.9126166e-01
0.0000000e+00
0.0000000e+00
-1.8352168e-04
4.4434583e-01
0.0000000e+00
4.8757944e-01
-8.1465011e-03
1.9786874e-02
3.8157788e-01
0.0000000e+00
0.0000000e+00
3.2634345e-01
4.4215120e-02
-1.0123834e-02
4.8091564e-01
4.2622954e-01
-1.7509822e-04
0.0000000e+00
0.0000000e+00
4.7131550e-01
-1.2043495e-02
3.5323256e-01
2.0771213e-02
0.0000000e+00
0.0000000e+00
0.0000000e+00
0.0000000e+00
-1.3888233e-02
4.5883754e-01
-1.0596470e-04
4.0535137e-01
0.0000000e+00
0.0000000e+00
4.7795489e-01
0.0000000e+00
-4.0768730e-03
4.8685551e-01
0.0000000e+00
4.8898864e-01
-8.1556737e-03
4.8839283e-01
-1.2207030e-02
0.0000000e+00
0.0000000e+00
4.4353670e-01
-1.5639501e-02
4.8475227e-01
2.2557521e-02
3.2782206e-01
-1.6202573e-02
3.8197848e-01
1.4464498e-04
4.7815350e-01
-2.0114241e-02
0.0000000e+00
0.0000000e+00
4.2546868e-01
-1.7278288e-02
0.0000000e+00
0.0000000e+00
4.6864349e-01
0.0000000e+00
0.0000000e+00
-2.3913549e-02
1.0230243e-03
3.5305962e-01
0.0000000e+00
0.0000000e+00
0.0000000e+00
0.0000000e+00
4.0464079e-01
-1.8786216e-02
4.5628229e-01
-2.7570896e-02
0.0000000e+00
4.7322050e-01
4.8205170e-01
-6.1021647e-03
0.0000000e+00
0.0000000e+00
-1.2196002e-02
4.8418447e-01
4.8361954e-01
4.4112700e-01
-1.8242039e-02
-3.1055441e-02
3.2750621e-01
1.7662011e-03
-2.0197002e-02
3.8134500e-01
-2.4201497e-02
0.0000000e+00
4.8004669e-01
0.0000000e+00
0.0000000e+00
0.0000000e+00
0.0000000e+00
0.0000000e+00
0.0000000e+00
-3.0035434e-02
4.7355461e-01
4.2323068e-01
-3.4336332e-02
0.0000000e+00
0.0000000e+00
-2.1529727e-02
3.5268980e-01
4.6419343e-01
-3.5703789e-02
0.0000000e+00
0.0000000e+00
4.0260541e-01
-3.7384715e-02
0.0000000e+00
0.0000000e+00
-4.1164517e-02
4.5202762e-01
0.0000000e+00
4.6661851e-01
0.0000000e+00
0.0000000e+00
4.7535098e-01
-8.1048626e-03
-1.6191436e-02
0.0000000e+00
0.0000000e+00
-2.1956841e-02
3.2711065e-01
4.7748119e-01
4.3711752e-01
-4.6372242e-02
3.7949470e-01
0.0000000e+00
0.0000000e+00
4.7695684e-01
-2.4210591e-02
-4.0216703e-02
0.0000000e+00
0.0000000e+00
-3.2113604e-02
4.7347546e-01
-5.1280480e-02
0.0000000e+00
4.1952959e-01
0.0000000e+00
-3.9851140e-02
4.6712855e-01
0.0000000e+00
0.0000000e+00
3.5100436e-01
-4.2513989e-02
-4.7372106e-02
4.5797086e-01
0.0000000e+00
0.0000000e+00
0.0000000e+00
3.9924133e-01
0.0000000e+00
-5.5822536e-02
0.0000000e+00
-5.4622225e-02
4.4607228e-01
0.0000000e+00
0.0000000e+00
3.2552186e-01
-4.4122126e-02
0.0000000e+00
4.5817497e-01
0.0000000e+00
0.0000000e+00
-1.0077229e-02
4.6677843e-01
0.0000000e+00
0.0000000e+00
4.6890220e-01
-2.0126600e-02
-6.1542794e-02
-6.0003027e-02
3.7661257e-01
4.3150482e-01
4.6842599e-01
-3.0089863e-02
0.0000000e+00
0.0000000e+00
-3.9908960e-02
4.6505669e-01
4.1433096e-01
-6.8066575e-02
0.0000000e+00
0.0000000e+00
0.0000000e+00
-4.9524888e-02
0.0000000e+00
4.5888904e-01
-6.3134909e-02
3.4836438e-01
0.0000000e+00
0.0000000e+00
0.0000000e+00
0.0000000e+00
4.4998270e-01
-5.8876369e-02
0.0000000e+00
0.0000000e+00
3.9466658e-01
-7.4125297e-02
-6.7898288e-02
0.0000000e+00
0.0000000e+00
4.3841448e-01
-6.5944687e-02
3.2313541e-01
0.0000000e+00
0.0000000e+00
4.4792324e-01
0.0000000e+00
-1.2011452e-02
3.7238801e-01
-7.9581119e-02
4.5636618e-01
4.2426354e-01
-7.6519683e-02
0.0000000e+00
0.0000000e+00
-2.3985945e-02
4.5847782e-01
0.0000000e+00
0.0000000e+00
0.0000000e+00
4.5805478e-01
-3.5856742e-02
0.0000000e+00
0.0000000e+00
4.5481470e-01
-4.7557175e-02
0.0000000e+00
0.0000000e+00
4.0761369e-01
-8.4661387e-02
0.0000000e+00
0.0000000e+00
3.4853593e-01
-8.4477842e-02
0.0000000e+00
0.0000000e+00
-5.9019454e-02
4.4885522e-01
-7.0173286e-02
4.4024098e-01
0.0000000e+00
3.8855043e-01
0.0000000e+00
-9.2233457e-02
0.0000000e+00
0.0000000e+00
-8.7698400e-02
3.1997907e-01
4.2905462e-01
-8.0944292e-02
0.0000000e+00
0.0000000e+00
0.0000000e+00
0.0000000e+00
0.0000000e+00
0.0000000e+00
3.6717016e-01
-9.9114843e-02
0.0000000e+00
4.3590376e-01
-1.3899626e-02
0.0000000e+00
0.0000000e+00
4.1538352e-01
-9.1252081e-02
4.4415367e-01
-2.7753714e-02
4.4624570e-01
-4.1487735e-02
4.4587827e-01
0.0000000e+00
0.0000000e+00
2.9424939e-01
-9.1347612e-02
-5.5027183e-02
0.0000000e+00
0.0000000e+00
4.4278082e-01
-1.0100842e-01
3.9931950e-01
3.4375739e-01
-1.0525714e-01
-6.8296447e-02
4.3705341e-01
0.0000000e+00
0.0000000e+00
0.0000000e+00
0.0000000e+00
0.0000000e+00
4.2876488e-01
-8.1217468e-02
-1.1011298e-01
3.8095909e-01
0.0000000e+00
0.0000000e+00
0.0000000e+00
0.0000000e+00
-1.0951474e-01
3.1574583e-01
0.0000000e+00
0.0000000e+00
4.1800269e-01
-9.3708232e-02
0.0000000e+00
0.0000000e+00
-1.1846751e-01
3.6044490e-01
-1.0568117e-01
4.0486011e-01
0.0000000e+00
4.2216396e-01
0.0000000e+00
0.0000000e+00
4.3018752e-01
-1.5733743e-02
-3.1413916e-02
4.3225071e-01
-1.1420164e-01
2.9049358e-01
0.0000000e+00
0.0000000e+00
4.3193892e-01
-4.6958890e-02
-1.1704141e-01
-1.2588738e-01
0.0000000e+00
0.0000000e+00
-6.2287141e-02
4.2899427e-01
3.3775604e-01
3.8943505e-01
0.0000000e+00
0.0000000e+00
0.0000000e+00
0.0000000e+00
-7.7316165e-02
4.2351821e-01
0.0000000e+00
0.0000000e+00
-1.2768532e-01
3.7183261e-01
0.0000000e+00
-9.1961294e-02
4.1558287e-01
0.0000000e+00
0.0000000e+00
0.0000000e+00
-1.3255572e-01
3.1383291e-01
0.0000000e+00
0.0000000e+00
4.0527922e-01
-1.0613438e-01
-1.3750172e-01
0.0000000e+00
0.0000000e+00
3.5216820e-01
0.0000000e+00
3.9270452e-01
-1.1974245e-01
0.0000000e+00
0.0000000e+00
0.0000000e+00
0.0000000e+00
0.0000000e+00
4.0675807e-01
-1.3701099e-01
-1.7505685e-02
2.8584811e-01
4.1452146e-01
-3.4950305e-02
0.0000000e+00
0.0000000e+00
4.1654512e-01
-5.2245829e-02
0.0000000e+00
0.0000000e+00
4.1628703e-01
-1.4635079e-01
3.3055773e-01
0.0000000e+00
0.0000000e+00
3.7796083e-01
-1.3268630e-01
-6.9304459e-02
4.1350237e-01
-8.6037666e-02
4.0829307e-01
0.0000000e+00
0.0000000e+00
-1.4226048e-01
2.6065040e-01
-1.4486025e-01
0.0000000e+00
0.0000000e+00
3.6115661e-01
4.0073341e-01
-1.0235522e-01
-1.5422039e-01
3.0728191e-01
0.0000000e+00
0.0000000e+00
0.0000000e+00
0.0000000e+00
-1.1816404e-01
0.0000000e+00
0.0000000e+00
3.9091641e-01
3.4240419e-01
-1.5614696e-01
0.0000000e+00
0.0000000e+00
0.0000000e+00
0.0000000e+00
-1.3336717e-01
-1.5953267e-01
2.8003716e-01
3.7894160e-01
0.0000000e+00
0.0000000e+00
0.0000000e+00
3.8974690e-01
0.0000000e+00
0.0000000e+00
-1.9207235e-02
3.9721617e-01
-3.8346425e-02
3.9918864e-01
-1.6644689e-01
3.2186285e-01
-5.7323780e-02
3.9898065e-01
-1.4786294e-01
3.6491346e-01
3.9636084e-01
0.0000000e+00
0.0000000e+00
-7.6045908e-02
2.5546527e-01
-1.6562903e-01
3.9143062e-01
-9.4419047e-02
0.0000000e+00
0.0000000e+00
0.0000000e+00
0.0000000e+00
0.0000000e+00
-1.6154379e-01
3.4894109e-01
-1.7551057e-01
0.0000000e+00
0.0000000e+00
2.9949915e-01
0.0000000e+00
3.8426515e-01
0.0000000e+00
-1.1234823e-01
0.0000000e+00
0.0000000e+00
-1.2973639e-01
3.7495813e-01
-1.7429934e-01
3.3114472e-01
0.0000000e+00
0.0000000e+00
0.0000000e+00
0.0000000e+00
-1.8368872e-01
2.7621749e-01
0.0000000e+00
0.0000000e+00
-1.4648373e-01
3.6360967e-01
3.7119758e-01
0.0000000e+00
3.7833920e-01
-2.0830086e-02
-4.1585624e-02
3.8024807e-01
0.0000000e+00
0.0000000e+00
-1.8600182e-01
3.1163898e-01
0.0000000e+00
0.0000000e+00
-6.2167645e-02
3.8008541e-01
0.0000000e+00
0.0000000e+00
3.5032460e-01
-1.6248691e-01
3.7763360e-01
-8.2477801e-02
0.0000000e+00
0.0000000e+00
0.0000000e+00
0.0000000e+00
-1.8860044e-01
2.4919918e-01
3.7299234e-01
-1.0241771e-01
0.0000000e+00
0.0000000e+00
-1.7763931e-01
3.3521283e-01
0.0000000e+00
0.0000000e+00
2.9064381e-01
-1.9658408e-01
3.6623663e-01
-1.2188835e-01
0.0000000e+00
0.0000000e+00
3.5745931e-01
-1.4078943e-01
2.2502145e-01
-1.9497275e-01
-1.9182988e-01
3.1838939e-01
0.0000000e+00
0.0000000e+00
2.6803780e-01
-2.0570673e-01
0.0000000e+00
0.0000000e+00
0.0000000e+00
3.4675953e-01
0.0000000e+00
0.0000000e+00
-1.5901892e-01
0.0000000e+00
0.0000000e+00
-2.0495124e-01
2.9998687e-01
0.0000000e+00
3.5118333e-01
3.5796446e-01
-2.2365848e-02
0.0000000e+00
0.0000000e+00
3.5979715e-01
-4.4651072e-02
3.3424097e-01
-1.7647269e-01
-6.6752076e-02
3.5967430e-01
0.0000000e+00
0.0000000e+00
-2.1398544e-01
2.4494834e-01
0.0000000e+00
0.0000000e+00
-8.8566065e-02
0.0000000e+00
0.0000000e+00
3.5739240e-01
2.8012428e-01
3.5304832e-01
-1.0999059e-01
-2.1687414e-01
-1.9304466e-01
3.2001126e-01
0.0000000e+00
0.0000000e+00
3.4671572e-01
0.0000000e+00
0.0000000e+00
-1.3092312e-01
0.0000000e+00
0.0000000e+00
-2.1861908e-01
2.1861972e-01
0.0000000e+00
0.0000000e+00
-2.0862797e-01
3.0418426e-01
0.0000000e+00
0.0000000e+00
3.3848533e-01
-1.5126060e-01
-2.2757113e-01
2.5905761e-01
0.0000000e+00
0.0000000e+00
0.0000000e+00
0.0000000e+00
3.2845393e-01
-1.7089918e-01
-2.2311412e-01
2.8687960e-01
0.0000000e+00
3.2978308e-01
-2.3806037e-02
3.3617219e-01
0.0000000e+00
0.0000000e+00
-2.2502291e-01
1.9497278e-01
-4.7525771e-02
3.3791614e-01
3.1672227e-01
-2.3666990e-01
2.3667012e-01
0.0000000e+00
0.0000000e+00
-1.8973425e-01
3.3782727e-01
-7.1051463e-02
0.0000000e+00
3.3571640e-01
-9.4276346e-02
0.0000000e+00
0.0000000e+00
2.6823854e-01
0.0000000e+00
0.0000000e+00
-2.3640612e-01
0.0000000e+00
0.0000000e+00
-2.0766068e-01
3.3167648e-01
-1.1709435e-01
3.0339465e-01
0.0000000e+00
0.0000000e+00
-1.3939981e-01
3.2577890e-01
0.0000000e+00
0.0000000e+00
-2.4494852e-01
2.1398568e-01
0.0000000e+00
0.0000000e+00
0.0000000e+00
2.8857934e-01
-2.2457361e-01
0.0000000e+00
2.4838462e-01
-2.4838394e-01
-1.6108727e-01
3.1811103e-01
0.0000000e+00
3.0876595e-01
0.0000000e+00
-1.8205132e-01
-2.4037100e-01
0.0000000e+00
2.7239195e-01
0.0000000e+00
-2.4920084e-01
1.8860050e-01
0.0000000e+00
0.0000000e+00
0.0000000e+00
0.0000000e+00
-2.5905699e-01
0.0000000e+00
3.0708134e-01
2.2757144e-01
3.1304839e-01
-2.5142070e-02
3.1469142e-01
0.0000000e+00
-2.0218682e-01
0.0000000e+00
-5.0192531e-02
2.9784021e-01
3.1463066e-01
-7.5039938e-02
0.0000000e+00
0.0000000e+00
-9.9573992e-02
3.1269148e-01
0.0000000e+00
0.0000000e+00
2.5495374e-01
-2.5495276e-01
2.8543305e-01
-2.2138934e-01
3.0896202e-01
-1.2368537e-01
-2.5547042e-01
1.6562805e-01
-2.6803750e-01
2.0570683e-01
0.0000000e+00
0.0000000e+00
0.0000000e+00
0.0000000e+00
-1.4726561e-01
3.0351034e-01
-2.6823729e-01
2.7164698e-01
2.3640671e-01
-2.3955616e-01
0.0000000e+00
2.9641953e-01
-1.7020705e-01
0.0000000e+00
0.0000000e+00
0.0000000e+00
0.0000000e+00
0.0000000e+00
0.0000000e+00
-1.9240282e-01
-2.7621824e-01
1.8368854e-01
2.8777775e-01
-2.6065913e-01
0.0000000e+00
0.0000000e+00
1.4225981e-01
2.5658867e-01
-2.5658762e-01
2.1687444e-01
-2.8012279e-01
0.0000000e+00
0.0000000e+00
0.0000000e+00
2.8316769e-01
0.0000000e+00
0.0000000e+00
2.8868449e-01
-2.6365232e-02
2.7767622e-01
-2.1374719e-01
-5.2633908e-02
2.9021508e-01
2.9017684e-01
-7.8691311e-02
2.4037176e-01
-2.7239054e-01
-1.0442399e-01
2.8840980e-01
0.0000000e+00
0.0000000e+00
-2.8004000e-01
1.5953191e-01
-2.3413607e-01
2.6620817e-01
0.0000000e+00
0.0000000e+00
1.9658417e-01
0.0000000e+00
0.0000000e+00
2.8499654e-01
-1.2971973e-01
-2.9064217e-01
0.0000000e+00
0.0000000e+00
2.8000101e-01
-1.5446754e-01
0.0000000e+00
0.0000000e+00
2.2311459e-01
-2.8687769e-01
0.0000000e+00
0.0000000e+00
2.5346896e-01
-2.5346801e-01
2.7350104e-01
-1.7855769e-01
0.0000000e+00
0.0000000e+00
1.3701098e-01
-2.8585267e-01
1.7551047e-01
-2.9949751e-01
-2.0188192e-01
2.6557899e-01
-2.7164564e-01
2.3955692e-01
0.0000000e+00
0.0000000e+00
0.0000000e+00
0.0000000e+00
-2.9998437e-01
2.0495151e-01
-2.2433375e-01
0.0000000e+00
2.5813654e-01
2.5631979e-01
0.0000000e+00
-2.7466660e-02
2.6317695e-01
0.0000000e+00
0.0000000e+00
2.6458442e-01
-5.4832179e-02
0.0000000e+00
0.0000000e+00
0.0000000e+00
-8.1978992e-02
-2.8857750e-01
0.0000000e+00
2.2457418e-01
2.6456344e-01
-3.0728036e-01
1.5422015e-01
-2.9049829e-01
1.1420157e-01
-1.0879088e-01
2.6296908e-01
1.8600193e-01
-3.1163570e-01
0.0000000e+00
0.0000000e+00
-2.4580906e-01
2.4580985e-01
-1.3515307e-01
2.5987744e-01
0.0000000e+00
0.0000000e+00
0.0000000e+00
0.0000000e+00
2.0862834e-01
-3.0418172e-01
-1.6095228e-01
2.5534779e-01
2.3413676e-01
-2.6620707e-01
-3.1383118e-01
1.3255566e-01
-1.8607692e-01
2.4945191e-01
0.0000000e+00
0.0000000e+00
-3.2185850e-01
1.6644686e-01
9.1347419e-02
-2.9425550e-01