# vtk DataFile Version 4.0
vtk output
ASCII
DATASET UNSTRUCTURED_GRID
POINTS 2601 float
0.0000000e+00 0.0000000e+00 0.0000000e+00 
0.0000000e+00 2.0000000e-02 0.0000000e+00 
2.0000000e-02 0.0000000e+00 0.0000000e+00 
2.0000000e-02 2.0000000e-02 0.0000000e+00 
3.9999999e-02 0.0000000e+00 0.0000000e+00 
0.0000000e+00 3.9999999e-02 0.0000000e+00 
3.9999999e-02 2.0000000e-02 0.0000000e+00 
2.0000000e-02 3.9999999e-02 0.0000000e+00 
3.9999999e-02 3.9999999e-02 0.0000000e+00 
5.9999999e-02 0.0000000e+00 0.0000000e+00 
0.0000000e+00 5.9999999e-02 0.0000000e+00 
5.9999999e-02 2.0000000e-02 0.0000000e+00 
2.0000000e-02 5.9999999e-02 0.0000000e+00 
3.9999999e-02 5.9999999e-02 0.0000000e+00 
5.9999999e-02 3.9999999e-02 0.0000000e+00 
7.9999998e-02 0.0000000e+00 0.0000000e+00 
0.0000000e+00 7.9999998e-02 0.0000000e+00 
7.9999998e-02 2.0000000e-02 0.0000000e+00 
2.0000000e-02 7.9999998e-02 0.0000000e+00 
5.9999999e-02 5.9999999e-02 0.0000000e+00 
7.9999998e-02 3.9999999e-02 0.0000000e+00 
3.9999999e-02 7.9999998e-02 0.0000000e+00 
5.9999999e-02 7.9999998e-02 0.0000000e+00 
7.9999998e-02 5.9999999e-02 0.0000000e+00 
1.0000000e-01 0.0000000e+00 0.0000000e+00 
0.0000000e+00 1.0000000e-01 0.0000000e+00 
1.0000000e-01 2.0000000e-02 0.0000000e+00 
2.0000000e-02 1.0000000e-01 0.0000000e+00 
3.9999999e-02 1.0000000e-01 0.0000000e+00 
1.0000000e-01 3.9999999e-02 0.0000000e+00 
7.9999998e-02 7.9999998e-02 0.0000000e+00 
1.0000000e-01 5.9999999e-02 0.0000000e+00 
5.9999999e-02 1.0000000e-01 0.0000000e+00 
1.2000000e-01 0.0000000e+00 0.0000000e+00 
0.0000000e+00 1.2000000e-01 0.0000000e+00 
1.2000000e-01 2.0000000e-02 0.0000000e+00 
2.0000000e-02 1.2000000e-01 0.0000000e+00 
1.2000000e-01 3.9999999e-02 0.0000000e+00 
3.9999999e-02 1.2000000e-01 0.0000000e+00 
1.0000000e-01 7.9999998e-02 0.0000000e+00 
7.9999998e-02 1.0000000e-01 0.0000000e+00 
1.2000000e-01 5.9999999e-02 0.0000000e+00 
5.9999999e-02 1.2000000e-01 0.0000000e+00 
0.0000000e+00 1.4000000e-01 0.0000000e+00 
1.4000000e-01 0.0000000e+00 0.0000000e+00 
1.0000000e-01 1.0000000e-01 0.0000000e+00 
2.0000000e-02 1.4000000e-01 0.0000000e+00 
1.4000000e-01 2.0000000e-02 0.0000000e+00 
1.2000000e-01 7.9999998e-02 0.0000000e+00 
7.9999998e-02 1.2000000e-01 0.0000000e+00 
3.9999999e-02 1.4000000e-01 0.0000000e+00 
1.4000000e-01 3.9999999e-02 0.0000000e+00 
1.4000000e-01 5.9999999e-02 0.0000000e+00 
5.9999999e-02 1.4000000e-01 0.0000000e+00 
1.2000000e-01 1.0000000e-01 0.0000000e+00 
1.0000000e-01 1.2000000e-01 0.0000000e+00 
1.6000000e-01 0.0000000e+00 0.0000000e+00 
0.0000000e+00 1.6000000e-01 0.0000000e+00 
1.6000000e-01 2.0000000e-02 0.0000000e+00 
7.9999998e-02 1.4000000e-01 0.0000000e+00 
2.0000000e-02 1.6000000e-01 0.0000000e+00 
1.4000000e-01 7.9999998e-02 0.0000000e+00 
1.6000000e-01 3.9999999e-02 0.0000000e+00 
3.9999999e-02 1.6000000e-01 0.0000000e+00 
1.2000000e-01 1.2000000e-01 0.0000000e+00 
1.6000000e-01 5.9999999e-02 0.0000000e+00 
5.9999999e-02 1.6000000e-01 0.0000000e+00 
1.0000000e-01 1.4000000e-01 0.0000000e+00 
1.4000000e-01 1.0000000e-01 0.0000000e+00 
1.6000000e-01 7.9999998e-02 0.0000000e+00 
7.9999998e-02 1.6000000e-01 0.0000000e+00 
0.0000000e+00 1.8000001e-01 0.0000000e+00 
1.8000001e-01 0.0000000e+00 0.0000000e+00 
1.8000001e-01 2.0000000e-02 0.0000000e+00 
2.0000000e-02 1.8000001e-01 0.0000000e+00 
3.9999999e-02 1.8000001e-01 0.0000000e+00 
1.8000001e-01 3.9999999e-02 0.0000000e+00 
1.2000000e-01 1.4000000e-01 0.0000000e+00 
1.4000000e-01 1.2000000e-01 0.0000000e+00 
1.0000000e-01 1.6000000e-01 0.0000000e+00 
1.6000000e-01 1.0000000e-01 0.0000000e+00 
1.8000001e-01 5.9999999e-02 0.0000000e+00 
5.9999999e-02 1.8000001e-01 0.0000000e+00 
7.9999998e-02 1.8000001e-01 0.0000000e+00 
1.8000001e-01 7.9999998e-02 0.0000000e+00 
1.4000000e-01 1.4000000e-01 0.0000000e+00 
1.2000000e-01 1.6000000e-01 0.0000000e+00 
1.6000000e-01 1.2000000e-01 0.0000000e+00 
0.0000000e+00 2.0000000e-01 0.0000000e+00 
2.0000000e-01 0.0000000e+00 0.0000000e+00 
2.0000000e-01 2.0000000e-02 0.0000000e+00 
2.0000000e-02 2.0000000e-01 0.0000000e+00 
2.0000000e-01 3.9999999e-02 0.0000000e+00 
3.9999999e-02 2.0000000e-01 0.0000000e+00 
1.0000000e-01 1.8000001e-01 0.0000000e+00 
1.8000001e-01 1.0000000e-01 0.0000000e+00 
2.0000000e-01 5.9999999e-02 0.0000000e+00 
5.9999999e-02 2.0000000e-01 0.0000000e+00 
1.4000000e-01 1.6000000e-01 0.0000000e+00 
1.6000000e-01 1.4000000e-01 0.0000000e+00 
2.0000000e-01 7.9999998e-02 0.0000000e+00 
7.9999998e-02 2.0000000e-01 0.0000000e+00 
1.8000001e-01 1.2000000e-01 0.0000000e+00 
1.2000000e-01 1.8000001e-01 0.0000000e+00 
2.2000000e-01 0.0000000e+00 0.0000000e+00 
0.0000000e+00 2.2000000e-01 0.0000000e+00 
2.2000000e-01 2.0000000e-02 0.0000000e+00 
2.0000000e-02 2.2000000e-01 0.0000000e+00 
2.2000000e-01 3.9999999e-02 0.0000000e+00 
3.9999999e-02 2.2000000e-01 0.0000000e+00 
1.0000000e-01 2.0000000e-01 0.0000000e+00 
2.0000000e-01 1.0000000e-01 0.0000000e+00 
1.6000000e-01 1.6000000e-01 0.0000000e+00 
2.2000000e-01 5.9999999e-02 0.0000000e+00 
5.9999999e-02 2.2000000e-01 0.0000000e+00 
1.8000001e-01 1.4000000e-01 0.0000000e+00 
1.4000000e-01 1.8000001e-01 0.0000000e+00 
2.0000000e-01 1.2000000e-01 0.0000000e+00 
1.2000000e-01 2.0000000e-01 0.0000000e+00 
7.9999998e-02 2.2000000e-01 0.0000000e+00 
2.2000000e-01 7.9999998e-02 0.0000000e+00 
2.3999999e-01 0.0000000e+00 0.0000000e+00 
0.0000000e+00 2.3999999e-01 0.0000000e+00 
2.3999999e-01 2.0000000e-02 0.0000000e+00 
1.8000001e-01 1.6000000e-01 0.0000000e+00 
1.6000000e-01 1.8000001e-01 0.0000000e+00 
2.0000000e-02 2.3999999e-01 0.0000000e+00 
2.2000000e-01 1.0000000e-01 0.0000000e+00 
1.0000000e-01 2.2000000e-01 0.0000000e+00 
3.9999999e-02 2.3999999e-01 0.0000000e+00 
2.3999999e-01 3.9999999e-02 0.0000000e+00 
1.4000000e-01 2.0000000e-01 0.0000000e+00 
2.0000000e-01 1.4000000e-01 0.0000000e+00 
2.3999999e-01 5.9999999e-02 0.0000000e+00 
5.9999999e-02 2.3999999e-01 0.0000000e+00 
2.2000000e-01 1.2000000e-01 0.0000000e+00 
1.2000000e-01 2.2000000e-01 0.0000000e+00 
7.9999998e-02 2.3999999e-01 0.0000000e+00 
2.3999999e-01 7.9999998e-02 0.0000000e+00 
1.8000001e-01 1.8000001e-01 0.0000000e+00 
2.0000000e-01 1.6000000e-01 0.0000000e+00 
1.6000000e-01 2.0000000e-01 0.0000000e+00 
1.0000000e-01 2.3999999e-01 0.0000000e+00 
2.3999999e-01 1.0000000e-01 0.0000000e+00 
0.0000000e+00 2.5999999e-01 0.0000000e+00 
2.5999999e-01 0.0000000e+00 0.0000000e+00 
1.4000000e-01 2.2000000e-01 0.0000000e+00 
2.2000000e-01 1.4000000e-01 0.0000000e+00 
2.0000000e-02 2.5999999e-01 0.0000000e+00 
2.5999999e-01 2.0000000e-02 0.0000000e+00 
3.9999999e-02 2.5999999e-01 0.0000000e+00 
2.5999999e-01 3.9999999e-02 0.0000000e+00 
5.9999999e-02 2.5999999e-01 0.0000000e+00 
2.5999999e-01 5.9999999e-02 0.0000000e+00 
2.3999999e-01 1.2000000e-01 0.0000000e+00 
1.2000000e-01 2.3999999e-01 0.0000000e+00 
1.8000001e-01 2.0000000e-01 0.0000000e+00 
2.0000000e-01 1.8000001e-01 0.0000000e+00 
2.2000000e-01 1.6000000e-01 0.0000000e+00 
7.9999998e-02 2.5999999e-01 0.0000000e+00 
2.5999999e-01 7.9999998e-02 0.0000000e+00 
1.6000000e-01 2.2000000e-01 0.0000000e+00 
2.3999999e-01 1.4000000e-01 0.0000000e+00 
1.4000000e-01 2.3999999e-01 0.0000000e+00 
1.0000000e-01 2.5999999e-01 0.0000000e+00 
2.5999999e-01 1.0000000e-01 0.0000000e+00 
2.8000000e-01 0.0000000e+00 0.0000000e+00 
0.0000000e+00 2.8000000e-01 0.0000000e+00 
2.0000000e-02 2.8000000e-01 0.0000000e+00 
2.8000000e-01 2.0000000e-02 0.0000000e+00 
2.8000000e-01 3.9999999e-02 0.0000000e+00 
3.9999999e-02 2.8000000e-01 0.0000000e+00 
2.0000000e-01 2.0000000e-01 0.0000000e+00 
1.8000001e-01 2.2000000e-01 0.0000000e+00 
2.2000000e-01 1.8000001e-01 0.0000000e+00 
2.8000000e-01 5.9999999e-02 0.0000000e+00 
2.5999999e-01 1.2000000e-01 0.0000000e+00 
1.2000000e-01 2.5999999e-01 0.0000000e+00 
5.9999999e-02 2.8000000e-01 0.0000000e+00 
2.3999999e-01 1.6000000e-01 0.0000000e+00 
1.6000000e-01 2.3999999e-01 0.0000000e+00 
7.9999998e-02 2.8000000e-01 0.0000000e+00 
2.8000000e-01 7.9999998e-02 0.0000000e+00 
1.4000000e-01 2.5999999e-01 0.0000000e+00 
2.5999999e-01 1.4000000e-01 0.0000000e+00 
2.2000000e-01 2.0000000e-01 0.0000000e+00 
1.0000000e-01 2.8000000e-01 0.0000000e+00 
2.0000000e-01 2.2000000e-01 0.0000000e+00 
2.8000000e-01 1.0000000e-01 0.0000000e+00 
1.8000001e-01 2.3999999e-01 0.0000000e+00 
3.0000001e-01 0.0000000e+00 0.0000000e+00 
2.3999999e-01 1.8000001e-01 0.0000000e+00 
0.0000000e+00 3.0000001e-01 0.0000000e+00 
3.0000001e-01 2.0000000e-02 0.0000000e+00 
2.0000000e-02 3.0000001e-01 0.0000000e+00 
3.9999999e-02 3.0000001e-01 0.0000000e+00 
3.0000001e-01 3.9999999e-02 0.0000000e+00 
1.2000000e-01 2.8000000e-01 0.0000000e+00 
2.8000000e-01 1.2000000e-01 0.0000000e+00 
1.6000000e-01 2.5999999e-01 0.0000000e+00 
2.5999999e-01 1.6000000e-01 0.0000000e+00 
5.9999999e-02 3.0000001e-01 0.0000000e+00 
3.0000001e-01 5.9999999e-02 0.0000000e+00 
7.9999998e-02 3.0000001e-01 0.0000000e+00 
3.0000001e-01 7.9999998e-02 0.0000000e+00 
2.2000000e-01 2.2000000e-01 0.0000000e+00 
2.3999999e-01 2.0000000e-01 0.0000000e+00 
2.0000000e-01 2.3999999e-01 0.0000000e+00 
1.4000000e-01 2.8000000e-01 0.0000000e+00 
2.8000000e-01 1.4000000e-01 0.0000000e+00 
1.0000000e-01 3.0000001e-01 0.0000000e+00 
2.5999999e-01 1.8000001e-01 0.0000000e+00 
1.8000001e-01 2.5999999e-01 0.0000000e+00 
3.0000001e-01 1.0000000e-01 0.0000000e+00 
0.0000000e+00 3.1999999e-01 0.0000000e+00 
3.1999999e-01 0.0000000e+00 0.0000000e+00 
2.0000000e-02 3.1999999e-01 0.0000000e+00 
3.1999999e-01 2.0000000e-02 0.0000000e+00 
3.9999999e-02 3.1999999e-01 0.0000000e+00 
1.6000000e-01 2.8000000e-01 0.0000000e+00 
3.1999999e-01 3.9999999e-02 0.0000000e+00 
2.8000000e-01 1.6000000e-01 0.0000000e+00 
1.2000000e-01 3.0000001e-01 0.0000000e+00 
3.0000001e-01 1.2000000e-01 0.0000000e+00 
2.2000000e-01 2.3999999e-01 0.0000000e+00 
5.9999999e-02 3.1999999e-01 0.0000000e+00 
2.3999999e-01 2.2000000e-01 0.0000000e+00 
3.1999999e-01 5.9999999e-02 0.0000000e+00 
2.0000000e-01 2.5999999e-01 0.0000000e+00 
2.5999999e-01 2.0000000e-01 0.0000000e+00 
[...]
POINT_DATA 2601
FIELD FieldData 1
TEMPERATURE 1 2601  float
-0.0000000e+00
0.0000000e+00
-3.8484752e-02
-3.8947746e-02
-7.6817624e-02
0.0000000e+00
-7.7741474e-02
-3.8970515e-02
-7.7786461e-02
-1.1484733e-01
0.0000000e+00
-1.1622915e-01
-3.8791936e-02
-7.7429540e-02
-1.1629689e-01
-1.5242378e-01
0.0000000e+00
-1.5425982e-01
-3.8402848e-02
-1.1576364e-01
-1.5435164e-01
-7.6652370e-02
-1.1460195e-01
-1.5364568e-01
-1.8939869e-01
0.0000000e+00
-1.9168411e-01
-3.7816677e-02
-7.5481743e-02
-1.9180201e-01
-1.5210541e-01
-1.9092831e-01
-1.1285186e-01
-2.2562614e-01
0.0000000e+00
-2.2835487e-01
-3.7044365e-02
-2.2850123e-01
-7.3939495e-02
-1.8901749e-01
-1.4978386e-01
-2.2746591e-01
-1.1054595e-01
0.0000000e+00
-2.6096314e-01
-1.8613531e-01
-3.6097419e-02
-2.6412773e-01
-2.2519444e-01
-1.4672424e-01
-7.2048567e-02
-2.6430514e-01
-2.6311520e-01
-1.0771850e-01
-2.2176494e-01
-1.8233529e-01
-2.9527023e-01
0.0000000e+00
-2.9886159e-01
-1.4297192e-01
-3.4987003e-02
-2.6049453e-01
-2.9907265e-01
-6.9831252e-02
-2.1724087e-01
-2.9773572e-01
-1.0440277e-01
-1.7767364e-01
-2.5653321e-01
-2.9477867e-01
-1.3857096e-01
0.0000000e+00
-3.2841203e-01
-3.3241940e-01
-3.3723753e-02
-6.7308769e-02
-3.3266640e-01
-2.1168900e-01
-2.5130418e-01
-1.7220497e-01
-2.9030284e-01
-3.3119053e-01
-1.0063048e-01
-1.3356338e-01
-3.2791087e-01
-2.4488433e-01
-2.0517410e-01
-2.8439033e-01
0.0000000e+00
-3.6025771e-01
-3.6466837e-01
-3.2317694e-02
-3.6495325e-01
-6.4501129e-02
-1.6598137e-01
-3.2293946e-01
-3.6334664e-01
-9.6431501e-02
-2.3734815e-01
-2.7712741e-01
-3.5975894e-01
-1.2798880e-01
-3.1636682e-01
-1.9775800e-01
-3.9068165e-01
0.0000000e+00
-3.9548087e-01
-3.0778257e-02
-3.9580491e-01
-6.1427139e-02
-1.5905195e-01
-3.5431209e-01
-2.6859790e-01
-3.9407572e-01
-9.1833971e-02
-3.0828810e-01
-2.2876681e-01
-3.4710431e-01
-1.8949907e-01
-1.2188454e-01
-3.9019507e-01
-4.1956374e-01
0.0000000e+00
-4.2473474e-01
-2.9879561e-01
-2.5888175e-01
-2.9114356e-02
-3.8429385e-01
-1.5146311e-01
-5.8104616e-02
-4.2509848e-01
-2.1920763e-01
-3.3823884e-01
-4.2325467e-01
-8.6864553e-02
-3.7647718e-01
-1.8045256e-01
-1.1528603e-01
-4.1909641e-01
-2.8797764e-01
-3.2781577e-01
-2.4805480e-01
-1.4325893e-01
-4.1276264e-01
0.0000000e+00
-4.4679001e-01
-2.0873444e-01
-3.6685550e-01
-2.7334522e-02
-4.5231384e-01
-5.4550610e-02
-4.5271695e-01
-8.1548780e-02
-4.5076618e-01
-4.0436441e-01
-1.7067112e-01
-2.7591795e-01
-3.1593081e-01
-3.5553572e-01
-1.0822728e-01
-4.4634584e-01
-2.3618922e-01
-3.9401823e-01
-1.9740838e-01
-1.3448189e-01
-4.3960193e-01
-4.7225299e-01
0.0000000e+00
-2.5447031e-02
-4.7810864e-01
-4.7854987e-01
-5.0781678e-02
-3.0267507e-01
-2.6269659e-01
-3.4262002e-01
-4.7649935e-01
-4.3065032e-01
-1.6020569e-01
-7.5911500e-02
-3.8183671e-01
-2.2335449e-01
-1.0074145e-01
-4.7183266e-01
-1.8528891e-01
-4.1961238e-01
-3.2820594e-01
-1.2517349e-01
-2.8813604e-01
-4.6470156e-01
-2.4839132e-01
-4.9585223e-01
-3.6792743e-01
0.0000000e+00
-5.0201660e-01
-2.3460049e-02
-4.6814159e-02
-5.0249386e-01
-1.4910628e-01
-4.5522559e-01
-2.0961866e-01
-4.0660512e-01
-6.9977254e-02
-5.0035048e-01
-9.2861325e-02
-4.9545327e-01
-3.1238770e-01
-3.5239318e-01
-2.7239937e-01
-1.7243472e-01
-4.4352967e-01
-1.1537492e-01
-3.9174017e-01
-2.3307900e-01
-4.8795852e-01
0.0000000e+00
-5.1749456e-01
-2.1381734e-02
-5.2394265e-01
-4.2664390e-02
-1.9504958e-01
-5.2445304e-01
-4.2973378e-01
-1.3742267e-01
-4.7798821e-01
-2.9525840e-01
-6.3770607e-02
-3.3533376e-01
-5.2222347e-01
-2.5555089e-01
-3.7512401e-01
-8.4619783e-02
-5.1711190e-01
-1.5890461e-01
-4.6566942e-01
-4.1395184e-01
-2.1683705e-01
-1.0512752e-01
-5.0927788e-01
-3.1684977e-01
-1.7971560e-01
-4.5112336e-01
0.0000000e+00
-5.3709453e-01
-1.9220343e-02
-3.5686126e-01
-2.7691355e-01
-5.4379982e-01
-1.2520494e-01
-4.9884462e-01
-3.8348906e-02
-5.4433984e-01
-3.9629281e-01
-2.3767884e-01
-5.7316404e-02
-5.4203057e-01
-7.6050110e-02
-5.3672123e-01
-4.8593971e-01
-1.4475787e-01
-1.9974460e-01
-4.3446472e-01
-3.3705595e-01
-2.9704344e-01
-9.4473161e-02
-5.2857363e-01
-2.5745106e-01
-3.7686214e-01
-1.6368607e-01
-4.7068408e-01
-5.5457491e-01
0.0000000e+00
-5.6150931e-01
-1.6984290e-02
-2.1887347e-01
-1.1250381e-01
-4.1580197e-01
-5.1771057e-01
-5.6207496e-01
-3.3884555e-02
-5.5969268e-01
-5.0639983e-02
-1.8188198e-01
-4.5319101e-01
-1.3005455e-01
-3.1582665e-01
-5.0425875e-01
-6.7186177e-02
-5.5420321e-01
-2.7603182e-01
-3.5577422e-01
-2.3697962e-01
-3.9524433e-01
-5.4576916e-01
-8.3454408e-02
-4.8833695e-01
-1.4703104e-01
-4.3356818e-01
-1.9923039e-01
-5.3451192e-01
-9.9370815e-02
-5.6986654e-01
0.0000000e+00
-5.7700098e-01
-1.4682191e-02
-2.9288579e-02
-5.7758808e-01
-3.3312806e-01
-2.9327658e-01
-3.7288958e-01
-2.5392094e-01
-5.7513994e-01
-1.6333100e-01
-4.3767236e-02
-4.7005537e-01
-5.2055573e-01
-1.1485543e-01
-2.1560249e-01
-5.6948918e-01
-4.1191679e-01
-5.8062591e-02
-7.2114684e-02
-5.6079811e-01
-5.0401533e-01
-1.2982111e-01
-1.7884286e-01
-4.4951817e-01
-3.0913821e-01
-3.4892195e-01
-2.6961318e-01
-8.5858330e-02
-5.4918575e-01
-2.3088297e-01
-5.8290923e-01
0.0000000e+00
-3.8837057e-01
-5.9021372e-01
-1.2322885e-02
-5.9081817e-01
-2.4578650e-02
-4.8499581e-01
-1.4417267e-01
-5.8831197e-01
-3.6724661e-02
-9.9222101e-02
-5.3477240e-01
-4.2682725e-01
-1.9344562e-01
-4.8714694e-02
-5.8252019e-01
-2.8370264e-01
-3.2323173e-01
-1.5780398e-01
-4.6359330e-01
-5.1766634e-01
-1.1212717e-01
-3.6289302e-01
-2.4480185e-01
-6.0498226e-02
-5.7360429e-01
-2.0698453e-01
-4.0207490e-01
-5.6168008e-01
-7.2019614e-02
-5.9365147e-01
0.0000000e+00
-6.0109544e-01
-9.9154236e-03
-1.2448652e-01
-4.9796587e-01
-6.0171342e-01
-1.9772846e-02
-1.7061318e-01
-4.3993151e-01
-8.3216935e-02
-5.4686260e-01
-5.9915787e-01
-2.9678372e-01
-2.9539319e-02
-2.5768730e-01
-3.3626062e-01
-5.9324723e-01
-3.9178472e-02
-3.7548590e-01
-2.1941325e-01
-4.7575676e-01
-1.3620517e-01
-9.4021194e-02
-5.2925408e-01
-4.8649926e-02
-5.8414173e-01
-4.1397884e-01
-1.8240666e-01
-5.7195365e-01
-5.7908494e-02
-1.0435291e-01
-2.6717719e-01
-3.0605799e-01
-5.0893384e-01
-1.4716628e-01
-4.5112166e-01
0.0000000e+00
-6.0205078e-01
-7.4690622e-03
-6.0960352e-01
-3.4503660e-01
-2.2907755e-01
-6.1023134e-01
-1.4889623e-02
-5.5679333e-01
-6.6903181e-02
-6.0763615e-01
-2.2238756e-02
-1.9335644e-01
-3.8652647e-01
-2.9490409e-02
-6.0163075e-01
-1.1413508e-01
-4.8601371e-01
-7.5575121e-02
-5.3875250e-01
-1.5734248e-01
-4.2429587e-01
-5.9237385e-01
-3.6615022e-02
-2.7732134e-01
-2.3934668e-01
-3.1639162e-01
-5.7997495e-01
-3.5501927e-01
-2.0184004e-01
-4.3578938e-02
-4.6037957e-01
-1.2322579e-01
-5.1791310e-01
-8.3858840e-02
-6.0807407e-01
0.0000000e+00
-4.9932431e-03
-1.6556494e-01
-3.9301503e-01
-6.1570460e-01
-5.6453985e-01
-5.0343454e-02
-9.9477824e-03
-6.1633921e-01
-1.4850946e-02
-6.1371487e-01
-9.1659501e-02
-4.9426490e-01
-4.3292156e-01
-1.3173877e-01
-6.0764033e-01
-2.4856591e-01
-1.9687351e-02
-2.8694957e-01
-5.4615587e-01
-5.6863233e-02
-3.2548711e-01
-2.1098964e-01
-5.9827304e-01
-2.4438793e-02
-1.7426582e-01
-3.6368409e-01
-9.8964252e-02
-4.6812522e-01
-2.9084070e-02
-6.3083321e-02
-5.2489120e-01
-5.8572006e-01
-4.0077662e-01
-1.3857523e-01
0.0000000e+00
-6.1169761e-01
-6.1937493e-01
-2.4975848e-03
-3.3598624e-02
-5.7008421e-01
-2.5653562e-01
-6.2001359e-01
-4.9664527e-03
-2.1912044e-01
-2.9511946e-01
-6.8928562e-02
-5.0076151e-01
-6.1737150e-01
-4.3659556e-01
-1.0499124e-01
-7.4042901e-03
-1.8215407e-01
-3.3336186e-01
-9.8065250e-03
-6.1125475e-01
-5.5144876e-01
-3.7953489e-02
-3.7092271e-01
-1.4614238e-01
-6.0181999e-01
-1.2166548e-02
-4.7396779e-01
-7.4331440e-02
-4.0724504e-01
-1.1152895e-01
-4.2113677e-02
-5.2988219e-01
-5.8917242e-01
-1.4476039e-02
0.0000000e+00
0.0000000e+00
0.0000000e+00
0.0000000e+00
-1.6725492e-02
0.0000000e+00
-6.1290705e-01
-5.7341266e-01
-3.4010437e-01
-1.5313447e-01
8.1303133e-06
-6.2060028e-01
-4.4187343e-01
-7.8685835e-02
-6.2124050e-01
3.4908557e-05
-4.6025116e-02
-5.0539595e-01
7.2324678e-05
-6.1859256e-01
-3.7680733e-01
-1.1770372e-01
-5.5462122e-01
-1.8905129e-02
1.1421074e-04
-6.1246169e-01
0.0000000e+00
0.0000000e+00
-4.9629945e-02
-6.0300386e-01
1.5575338e-04
0.0000000e+00
-4.7824052e-01
-8.4135987e-02
-4.1233733e-01
0.0000000e+00
0.0000000e+00
-5.3286374e-01
-2.1006590e-02
-5.9032339e-01
1.9280557e-04
0.0000000e+00
0.0000000e+00
-5.2452050e-02
-4.4577017e-01
2.2072536e-04
-5.7451922e-01
-5.0815535e-01
-2.3021016e-02
-6.1169761e-01
0.0000000e+00
-6.1937594e-01
2.5139856e-03
5.0365487e-03
-3.8167277e-01
-8.9381963e-02
-6.2001550e-01
0.0000000e+00
7.5494875e-03
-6.1737406e-01
0.0000000e+00
0.0000000e+00
2.3192080e-04
-5.5566901e-01
0.0000000e+00
-6.1125749e-01
1.0036101e-02
-2.4937537e-02
-4.8076826e-01
0.0000000e+00
0.0000000e+00
-4.1589147e-01
-5.6435011e-02
1.2480551e-02
-6.0182202e-01
-5.3383166e-01
2.0877810e-04
0.0000000e+00
0.0000000e+00
-5.8917201e-01
1.4867137e-02
-4.4818315e-01
-2.6420744e-02
0.0000000e+00
0.0000000e+00
0.0000000e+00
0.0000000e+00
1.7179495e-02
-5.7340616e-01
1.0093650e-04
-5.0900406e-01
0.0000000e+00
0.0000000e+00
-6.0807407e-01
0.0000000e+00
5.0099934e-03
-6.1570680e-01
0.0000000e+00
-6.1634344e-01
1.0018541e-02
-6.1372083e-01
1.4997420e-02
0.0000000e+00
0.0000000e+00
-5.5460119e-01
1.9399814e-02
-6.0764724e-01
-2.8892379e-02
-4.1809994e-01
1.9919606e-02
-4.8139045e-01
-2.6834608e-04
-5.9827965e-01
2.4758523e-02
0.0000000e+00
0.0000000e+00
-5.3281468e-01
2.1509813e-02
0.0000000e+00
0.0000000e+00
-5.8572388e-01
0.0000000e+00
0.0000000e+00
2.9487280e-02
-1.5724464e-03
-4.4817230e-01
0.0000000e+00
0.0000000e+00
0.0000000e+00
0.0000000e+00
-5.0804102e-01
2.3494242e-02
-5.7008028e-01
3.4078058e-02
0.0000000e+00
-6.0205078e-01
-6.0960722e-01
7.4861958e-03
0.0000000e+00
0.0000000e+00
1.4961001e-02
-6.1023867e-01
-6.0764676e-01
-5.5142778e-01
2.2386367e-02
3.8502280e-02
-4.1794237e-01
-2.5636274e-03
2.5402250e-02
-4.8051164e-01
2.9725138e-02
0.0000000e+00
-6.0164404e-01
0.0000000e+00
0.0000000e+00
0.0000000e+00
0.0000000e+00
0.0000000e+00
0.0000000e+00
3.6940154e-02
-5.9238893e-01
-5.2982223e-01
4.2732906e-02
0.0000000e+00
0.0000000e+00
2.7370214e-02
-4.4758877e-01
-5.7998997e-01
4.3993268e-02
0.0000000e+00
0.0000000e+00
-5.0526190e-01
4.6750054e-02
0.0000000e+00
0.0000000e+00
5.0844524e-02
-5.6455165e-01
0.0000000e+00
-5.9365147e-01
0.0000000e+00
0.0000000e+00
-6.0110104e-01
9.9327723e-03
1.9844325e-02
0.0000000e+00
0.0000000e+00
2.8069375e-02
-4.1732010e-01
-6.0172457e-01
-5.4615718e-01
5.7451043e-02
-4.7793019e-01
0.0000000e+00
0.0000000e+00
-5.9917450e-01
2.9687019e-02
5.0590556e-02
0.0000000e+00
0.0000000e+00
3.9413810e-02
-5.9326929e-01
6.3769355e-02
0.0000000e+00
-5.2487612e-01
0.0000000e+00
4.8977166e-02
-5.8416891e-01
0.0000000e+00
0.0000000e+00
-4.4516161e-01
5.4031242e-02
5.8327861e-02
-5.7198596e-01
0.0000000e+00
0.0000000e+00
0.0000000e+00
-5.0067884e-01
0.0000000e+00
6.9738984e-02
0.0000000e+00
6.7413494e-02
-5.5683029e-01
0.0000000e+00
0.0000000e+00
-4.1497475e-01
5.6405708e-02
0.0000000e+00
-5.8290923e-01
0.0000000e+00
0.0000000e+00
1.2340119e-02
-5.9022152e-01
0.0000000e+00
0.0000000e+00
-5.9083390e-01
2.4649363e-02
7.6177120e-02
7.5364076e-02
-4.7385526e-01
-5.3879708e-01
-5.8833587e-01
3.6870789e-02
0.0000000e+00
0.0000000e+00
4.8947804e-02
-5.8255267e-01
-5.1795578e-01
8.4553078e-02
0.0000000e+00
0.0000000e+00
0.0000000e+00
6.0822945e-02
0.0000000e+00
-5.7364619e-01
8.0019355e-02
-4.4139230e-01
0.0000000e+00
0.0000000e+00
0.0000000e+00
0.0000000e+00
-5.6173289e-01
7.2436422e-02
0.0000000e+00
0.0000000e+00
-4.9440759e-01
9.2472404e-02
8.3724394e-02
0.0000000e+00
0.0000000e+00
-5.4692936e-01
8.4075019e-02
-4.1146192e-01
0.0000000e+00
0.0000000e+00
-5.6986654e-01
0.0000000e+00
1.4698904e-02
-4.6802655e-01
9.9797405e-02
-5.7701129e-01
-5.2933860e-01
9.4616756e-02
0.0000000e+00
0.0000000e+00
2.9357495e-02
-5.7760894e-01
0.0000000e+00
0.0000000e+00
0.0000000e+00
-5.7517189e-01
4.3909892e-02
0.0000000e+00
0.0000000e+00
-5.6953317e-01
5.8290403e-02
0.0000000e+00
0.0000000e+00
-5.0905216e-01
1.0503419e-01
0.0000000e+00
0.0000000e+00
-4.3973178e-01
1.0653458e-01
0.0000000e+00
0.0000000e+00
7.2432213e-02
-5.6085587e-01
8.6265847e-02
-5.4926020e-01
0.0000000e+00
-4.8614872e-01
0.0000000e+00
1.1488464e-01
0.0000000e+00
0.0000000e+00
1.1159416e-01
-4.0675765e-01
-5.3486818e-01
9.9717371e-02
0.0000000e+00
0.0000000e+00
0.0000000e+00
0.0000000e+00
0.0000000e+00
0.0000000e+00
-4.6070471e-01
1.2404277e-01
0.0000000e+00
-5.5457491e-01
1.7000075e-02
0.0000000e+00
0.0000000e+00
-5.1779121e-01
1.1270615e-01
-5.6152225e-01
3.3950664e-02
-5.6210113e-01
5.0777357e-02
-5.5973291e-01
0.0000000e+00
0.0000000e+00
-3.7607431e-01
1.1696322e-01
6.7405865e-02
0.0000000e+00
0.0000000e+00
-5.5425894e-01
1.2514241e-01
-4.9813044e-01
-4.3295613e-01
1.3244100e-01
8.3760701e-02
-5.4584277e-01
0.0000000e+00
0.0000000e+00
0.0000000e+00
0.0000000e+00
0.0000000e+00
-5.3460729e-01
9.9763691e-02
1.3692248e-01
-4.7597799e-01
0.0000000e+00
0.0000000e+00
0.0000000e+00
0.0000000e+00
1.3902460e-01
-4.0055788e-01
0.0000000e+00
0.0000000e+00
-5.2067858e-01
1.1533220e-01
0.0000000e+00
0.0000000e+00
1.4794019e-01
-4.5145637e-01
1.3037717e-01
-5.0417405e-01
0.0000000e+00
-5.3709453e-01
0.0000000e+00
0.0000000e+00
-5.4381543e-01
1.9234855e-02
3.8411338e-02
-5.4437137e-01
1.4581394e-01
-3.7039369e-01
0.0000000e+00
0.0000000e+00
-5.4207903e-01
5.7446945e-02
1.4480089e-01
1.5800679e-01
0.0000000e+00
0.0000000e+00
7.6259315e-02
-5.3678840e-01
-4.2453414e-01
-4.8520213e-01
0.0000000e+00
0.0000000e+00
0.0000000e+00
0.0000000e+00
9.4764970e-02
-5.2866226e-01
0.0000000e+00
0.0000000e+00
1.5849479e-01
-4.6386510e-01
0.0000000e+00
1.1287795e-01
-5.1782495e-01
0.0000000e+00
0.0000000e+00
0.0000000e+00
1.6725917e-01
-3.9604202e-01
0.0000000e+00
0.0000000e+00
-5.0440526e-01
1.3050820e-01
1.7133978e-01
0.0000000e+00
0.0000000e+00
-4.4026425e-01
0.0000000e+00
-4.8852444e-01
1.4755985e-01
0.0000000e+00
0.0000000e+00
0.0000000e+00
0.0000000e+00
0.0000000e+00
-5.1749456e-01
1.7434679e-01
2.1394722e-02
-3.6345869e-01
-5.2396083e-01
4.2722482e-02
0.0000000e+00
0.0000000e+00
-5.2448970e-01
6.3893117e-02
0.0000000e+00
0.0000000e+00
-5.2227974e-01
1.8318695e-01
-4.1449264e-01
0.0000000e+00
0.0000000e+00
-4.7029573e-01
1.6392936e-01
8.4816687e-02
-5.1718962e-01
1.0540238e-01
-5.0938010e-01
0.0000000e+00
0.0000000e+00
1.8203835e-01
-3.3311966e-01
1.7950445e-01
0.0000000e+00
0.0000000e+00
-4.4982672e-01
-4.9897575e-01
1.2555721e-01
1.9399856e-01
-3.8678312e-01
0.0000000e+00
0.0000000e+00
0.0000000e+00
0.0000000e+00
1.4518476e-01
0.0000000e+00
0.0000000e+00
-4.8610622e-01
-4.2721871e-01
1.9415885e-01
0.0000000e+00
0.0000000e+00
0.0000000e+00
0.0000000e+00
1.6418357e-01
2.0233171e-01
-3.5502887e-01
-4.7089472e-01
0.0000000e+00
0.0000000e+00
0.0000000e+00
-4.9585223e-01
0.0000000e+00
0.0000000e+00
2.3471370e-02
-5.0203705e-01
4.6867479e-02
-5.0253516e-01
2.0777743e-01
-4.0260732e-01
7.0090920e-02
-5.0041378e-01
1.8244602e-01
-4.5345750e-01
-4.9554038e-01
0.0000000e+00
0.0000000e+00
9.3044646e-02
-3.2541442e-01
2.1113314e-01
-4.8807240e-01
1.1563104e-01
0.0000000e+00
0.0000000e+00
0.0000000e+00
0.0000000e+00
0.0000000e+00
1.9985642e-01
-4.3390438e-01
2.2010474e-01
0.0000000e+00
0.0000000e+00
-3.7595049e-01
0.0000000e+00
-4.7813326e-01
0.0000000e+00
1.3775079e-01
0.0000000e+00
0.0000000e+00
1.5930183e-01
-4.6585178e-01
2.1629301e-01
-4.1234621e-01
0.0000000e+00
0.0000000e+00
0.0000000e+00
0.0000000e+00
2.3141256e-01
-3.4804606e-01
0.0000000e+00
0.0000000e+00
1.8017818e-01
-4.5135140e-01
-4.7225299e-01
0.0000000e+00
-4.7813120e-01
2.5456652e-02
5.0830029e-02
-4.7859529e-01
0.0000000e+00
0.0000000e+00
2.3161405e-01
-3.8888207e-01
0.0000000e+00
0.0000000e+00
7.6015860e-02
-4.7656870e-01
0.0000000e+00
0.0000000e+00
-4.3474907e-01
2.0026882e-01
-4.7192767e-01
1.0091043e-01
0.0000000e+00
0.0000000e+00
0.0000000e+00
0.0000000e+00
2.3948826e-01
-3.1637016e-01
-4.6482497e-01
1.2540975e-01
0.0000000e+00
0.0000000e+00
2.1945728e-01
-4.1615653e-01
0.0000000e+00
0.0000000e+00
-3.6370108e-01
2.4572627e-01
-4.5538148e-01
1.4940873e-01
0.0000000e+00
0.0000000e+00
-4.4372374e-01
1.7280026e-01
-2.8697348e-01
2.4870816e-01
2.3761986e-01
-3.9568198e-01
0.0000000e+00
0.0000000e+00
-3.3668658e-01
2.5828511e-01
0.0000000e+00
0.0000000e+00
0.0000000e+00
-4.2997351e-01
0.0000000e+00
0.0000000e+00
1.9547433e-01
0.0000000e+00
0.0000000e+00
2.5463226e-01
-3.7344310e-01
0.0000000e+00
-4.4679001e-01
-4.5233813e-01
2.7342504e-02
0.0000000e+00
0.0000000e+00
-4.5276570e-01
5.4593991e-02
-4.1424674e-01
2.1731743e-01
8.1643701e-02
-4.5084032e-01
0.0000000e+00
0.0000000e+00
2.6979387e-01
-3.0884621e-01
0.0000000e+00
0.0000000e+00
1.0838161e-01
0.0000000e+00
0.0000000e+00
-4.4644696e-01
-3.4954163e-01
-4.3973243e-01
1.3469779e-01
2.7034590e-01
2.3821193e-01
-3.9665398e-01
0.0000000e+00
0.0000000e+00
-4.3081385e-01
0.0000000e+00
0.0000000e+00
1.6048174e-01
0.0000000e+00
0.0000000e+00
2.7769780e-01
-2.7769852e-01
0.0000000e+00
0.0000000e+00
2.5803676e-01
-3.7730384e-01
0.0000000e+00
0.0000000e+00
-4.1981390e-01
1.8562169e-01
2.8469816e-01
-3.2420111e-01
0.0000000e+00
0.0000000e+00
0.0000000e+00
0.0000000e+00
-4.0685117e-01
2.1000405e-01
2.7666602e-01
-3.5630444e-01
0.0000000e+00
-4.1956374e-01
2.9120848e-02
-4.2476028e-01
0.0000000e+00
0.0000000e+00
2.8697494e-01
-2.4870847e-01
5.8143206e-02
-4.2514962e-01
-3.9203873e-01
2.9731327e-01
-2.9731309e-01
0.0000000e+00
0.0000000e+00
2.3351292e-01
-4.2333221e-01
8.6950190e-02
0.0000000e+00
-4.1920161e-01
1.1542582e-01
0.0000000e+00
0.0000000e+00
-3.3377948e-01
0.0000000e+00
0.0000000e+00
2.9398030e-01
0.0000000e+00
0.0000000e+00
2.5603011e-01
-4.1289759e-01
1.4345455e-01
-3.7548453e-01
0.0000000e+00
0.0000000e+00
1.7092077e-01
-4.0453219e-01
0.0000000e+00
0.0000000e+00
3.0884674e-01
-2.6979393e-01
0.0000000e+00
0.0000000e+00
0.0000000e+00
-3.5729331e-01
2.7743515e-01
0.0000000e+00
-3.0983585e-01
3.0983579e-01
1.9770837e-01
-3.9422306e-01
0.0000000e+00
-3.8208404e-01
0.0000000e+00
2.2370030e-01
2.9760739e-01
0.0000000e+00
-3.3757097e-01
0.0000000e+00
3.1637239e-01
-2.3948824e-01
0.0000000e+00
0.0000000e+00
0.0000000e+00
0.0000000e+00
3.2420111e-01
0.0000000e+00
-3.9068165e-01
-2.8469798e-01
-3.9550716e-01
3.0783460e-02
-3.9585739e-01
0.0000000e+00
2.4877845e-01
0.0000000e+00
6.1461248e-02
-3.6822382e-01
-3.9415500e-01
9.1910690e-02
0.0000000e+00
0.0000000e+00
1.2201020e-01
-3.9030212e-01
0.0000000e+00
0.0000000e+00
-3.1642503e-01
3.1642482e-01
-3.5274604e-01
2.7282363e-01
-3.8443038e-01
1.5163893e-01
3.2542080e-01
-2.1113202e-01
3.3668694e-01
-2.5828490e-01
0.0000000e+00
0.0000000e+00
0.0000000e+00
0.0000000e+00
1.8067643e-01
-3.7664571e-01
3.3377904e-01
-3.3575082e-01
-2.9398024e-01
2.9571623e-01
0.0000000e+00
-3.6705947e-01
2.0900241e-01
0.0000000e+00
0.0000000e+00
0.0000000e+00
0.0000000e+00
0.0000000e+00
0.0000000e+00
2.3649651e-01
3.4804764e-01
-2.3141219e-01
-3.5577953e-01
3.3313000e-01
0.0000000e+00
0.0000000e+00
-1.8203790e-01
-3.1733727e-01
3.1733710e-01
-2.7034572e-01
3.4954098e-01
0.0000000e+00
0.0000000e+00
0.0000000e+00
-3.6025771e-01
0.0000000e+00
0.0000000e+00
-3.6469474e-01
3.2321848e-02
-3.4290892e-01
2.6303825e-01
6.4531140e-02
-3.6500579e-01
-3.6342576e-01
9.6499808e-02
-2.9760739e-01
3.3757043e-01
1.2810098e-01
-3.5986537e-01
0.0000000e+00
0.0000000e+00
3.5503298e-01
-2.0233080e-01
2.8850725e-01
-3.2854569e-01
0.0000000e+00
0.0000000e+00
-2.4572602e-01
0.0000000e+00
0.0000000e+00
-3.5444710e-01
1.5920879e-01
3.6370027e-01
0.0000000e+00
0.0000000e+00
-3.4726986e-01
1.8969823e-01
0.0000000e+00
0.0000000e+00
-2.7666590e-01
3.5630345e-01
0.0000000e+00
0.0000000e+00
-3.1278399e-01
3.1278390e-01
-3.3843765e-01
2.1944501e-01
0.0000000e+00
0.0000000e+00
-1.7434685e-01
3.6346480e-01
-2.2010440e-01
3.7594971e-01
2.4832545e-01
-3.2805133e-01
3.3575043e-01
-2.9571620e-01
0.0000000e+00
0.0000000e+00
0.0000000e+00
0.0000000e+00
3.7344152e-01
-2.5463203e-01
2.7621666e-01
0.0000000e+00
-3.2841203e-01
-3.1620720e-01
0.0000000e+00
3.3727106e-02
-3.3244514e-01
0.0000000e+00
0.0000000e+00
-3.3271763e-01
6.7335114e-02
0.0000000e+00
0.0000000e+00
0.0000000e+00
1.0069095e-01
3.5729247e-01