# vtk DataFile Version 4.0
vtk output
ASCII
DATASET UNSTRUCTURED_GRID
POINTS 341 float
0.0000000e+00 0.0000000e+00 0.0000000e+00 
5.0000001e-02 0.0000000e+00 0.0000000e+00 
0.0000000e+00 5.0000001e-02 0.0000000e+00 
1.0000000e-01 0.0000000e+00 0.0000000e+00 
0.0000000e+00 1.0000000e-01 0.0000000e+00 
5.0000001e-02 1.0000000e-01 0.0000000e+00 
1.0000000e-01 5.0000001e-02 0.0000000e+00 
1.0000000e-01 1.0000000e-01 0.0000000e+00 
0.0000000e+00 1.5000001e-01 0.0000000e+00 
1.5000001e-01 0.0000000e+00 0.0000000e+00 
1.0000000e-01 1.5000001e-01 0.0000000e+00 
1.5000001e-01 1.0000000e-01 0.0000000e+00 
2.0000000e-01 0.0000000e+00 0.0000000e+00 
0.0000000e+00 2.0000000e-01 0.0000000e+00 
5.0000001e-02 2.0000000e-01 0.0000000e+00 
2.0000000e-01 5.0000001e-02 0.0000000e+00 
1.0000000e-01 2.0000000e-01 0.0000000e+00 
2.0000000e-01 1.0000000e-01 0.0000000e+00 
1.5000001e-01 2.0000000e-01 0.0000000e+00 
2.0000000e-01 1.5000001e-01 0.0000000e+00 
2.5000000e-01 0.0000000e+00 0.0000000e+00 
0.0000000e+00 2.5000000e-01 0.0000000e+00 
2.5000000e-01 1.0000000e-01 0.0000000e+00 
1.0000000e-01 2.5000000e-01 0.0000000e+00 
2.0000000e-01 2.0000000e-01 0.0000000e+00 
3.0000001e-01 0.0000000e+00 0.0000000e+00 
0.0000000e+00 3.0000001e-01 0.0000000e+00 
3.0000001e-01 5.0000001e-02 0.0000000e+00 
5.0000001e-02 3.0000001e-01 0.0000000e+00 
3.0000001e-01 1.0000000e-01 0.0000000e+00 
1.0000000e-01 3.0000001e-01 0.0000000e+00 
2.5000000e-01 2.0000000e-01 0.0000000e+00 
2.0000000e-01 2.5000000e-01 0.0000000e+00 
3.0000001e-01 1.5000001e-01 0.0000000e+00 
1.5000001e-01 3.0000001e-01 0.0000000e+00 
3.4999999e-01 0.0000000e+00 0.0000000e+00 
0.0000000e+00 3.4999999e-01 0.0000000e+00 
3.0000001e-01 2.0000000e-01 0.0000000e+00 
2.0000000e-01 3.0000001e-01 0.0000000e+00 
1.0000000e-01 3.4999999e-01 0.0000000e+00 
3.4999999e-01 1.0000000e-01 0.0000000e+00 
2.5000000e-01 3.0000001e-01 0.0000000e+00 
3.0000001e-01 2.5000000e-01 0.0000000e+00 
0.0000000e+00 4.0000001e-01 0.0000000e+00 
4.0000001e-01 0.0000000e+00 0.0000000e+00 
2.0000000e-01 3.4999999e-01 0.0000000e+00 
3.4999999e-01 2.0000000e-01 0.0000000e+00 
4.0000001e-01 5.0000001e-02 0.0000000e+00 
5.0000001e-02 4.0000001e-01 0.0000000e+00 
4.0000001e-01 1.0000000e-01 0.0000000e+00 
1.0000000e-01 4.0000001e-01 0.0000000e+00 
3.0000001e-01 3.0000001e-01 0.0000000e+00 
1.5000001e-01 4.0000001e-01 0.0000000e+00 
4.0000001e-01 1.5000001e-01 0.0000000e+00 
4.0000001e-01 2.0000000e-01 0.0000000e+00 
2.0000000e-01 4.0000001e-01 0.0000000e+00 
4.4999999e-01 0.0000000e+00 0.0000000e+00 
0.0000000e+00 4.4999999e-01 0.0000000e+00 
3.0000001e-01 3.4999999e-01 0.0000000e+00 
3.4999999e-01 3.0000001e-01 0.0000000e+00 
4.4999999e-01 1.0000000e-01 0.0000000e+00 
1.0000000e-01 4.4999999e-01 0.0000000e+00 
4.0000001e-01 2.5000000e-01 0.0000000e+00 
2.5000000e-01 4.0000001e-01 0.0000000e+00 
2.0000000e-01 4.4999999e-01 0.0000000e+00 
4.4999999e-01 2.0000000e-01 0.0000000e+00 
3.0000001e-01 4.0000001e-01 0.0000000e+00 
5.0000000e-01 0.0000000e+00 0.0000000e+00 
0.0000000e+00 5.0000000e-01 0.0000000e+00 
4.0000001e-01 3.0000001e-01 0.0000000e+00 
5.0000001e-02 5.0000000e-01 0.0000000e+00 
5.0000000e-01 5.0000001e-02 0.0000000e+00 
1.0000000e-01 5.0000000e-01 0.0000000e+00 
5.0000000e-01 1.0000000e-01 0.0000000e+00 
5.0000000e-01 1.5000001e-01 0.0000000e+00 
1.5000001e-01 5.0000000e-01 0.0000000e+00 
4.0000001e-01 3.4999999e-01 0.0000000e+00 
3.4999999e-01 4.0000001e-01 0.0000000e+00 
2.0000000e-01 5.0000000e-01 0.0000000e+00 
5.0000000e-01 2.0000000e-01 0.0000000e+00 
4.4999999e-01 3.0000001e-01 0.0000000e+00 
3.0000001e-01 4.4999999e-01 0.0000000e+00 
0.0000000e+00 5.5000001e-01 0.0000000e+00 
5.5000001e-01 0.0000000e+00 0.0000000e+00 
1.0000000e-01 5.5000001e-01 0.0000000e+00 
5.5000001e-01 1.0000000e-01 0.0000000e+00 
2.5000000e-01 5.0000000e-01 0.0000000e+00 
5.0000000e-01 2.5000000e-01 0.0000000e+00 
4.0000001e-01 4.0000001e-01 0.0000000e+00 
5.0000000e-01 3.0000001e-01 0.0000000e+00 
3.0000001e-01 5.0000000e-01 0.0000000e+00 
5.5000001e-01 2.0000000e-01 0.0000000e+00 
2.0000000e-01 5.5000001e-01 0.0000000e+00 
0.0000000e+00 6.0000002e-01 0.0000000e+00 
6.0000002e-01 0.0000000e+00 0.0000000e+00 
4.0000001e-01 4.4999999e-01 0.0000000e+00 
4.4999999e-01 4.0000001e-01 0.0000000e+00 
6.0000002e-01 5.0000001e-02 0.0000000e+00 
5.0000001e-02 6.0000002e-01 0.0000000e+00 
6.0000002e-01 1.0000000e-01 0.0000000e+00 
1.0000000e-01 6.0000002e-01 0.0000000e+00 
3.4999999e-01 5.0000000e-01 0.0000000e+00 
5.0000000e-01 3.4999999e-01 0.0000000e+00 
6.0000002e-01 1.5000001e-01 0.0000000e+00 
1.5000001e-01 6.0000002e-01 0.0000000e+00 
5.5000001e-01 3.0000001e-01 0.0000000e+00 
3.0000001e-01 5.5000001e-01 0.0000000e+00 
6.0000002e-01 2.0000000e-01 0.0000000e+00 
2.0000000e-01 6.0000002e-01 0.0000000e+00 
4.0000001e-01 5.0000000e-01 0.0000000e+00 
5.0000000e-01 4.0000001e-01 0.0000000e+00 
0.0000000e+00 6.4999998e-01 0.0000000e+00 
6.4999998e-01 0.0000000e+00 0.0000000e+00 
6.0000002e-01 2.5000000e-01 0.0000000e+00 
2.5000000e-01 6.0000002e-01 0.0000000e+00 
6.4999998e-01 1.0000000e-01 0.0000000e+00 
1.0000000e-01 6.4999998e-01 0.0000000e+00 
6.0000002e-01 3.0000001e-01 0.0000000e+00 
3.0000001e-01 6.0000002e-01 0.0000000e+00 
4.4999999e-01 5.0000000e-01 0.0000000e+00 
5.0000000e-01 4.4999999e-01 0.0000000e+00 
2.0000000e-01 6.4999998e-01 0.0000000e+00 
6.4999998e-01 2.0000000e-01 0.0000000e+00 
5.5000001e-01 4.0000001e-01 0.0000000e+00 
4.0000001e-01 5.5000001e-01 0.0000000e+00 
6.0000002e-01 3.4999999e-01 0.0000000e+00 
3.4999999e-01 6.0000002e-01 0.0000000e+00 
0.0000000e+00 6.9999999e-01 0.0000000e+00 
6.9999999e-01 0.0000000e+00 0.0000000e+00 
6.9999999e-01 5.0000001e-02 0.0000000e+00 
5.0000001e-02 6.9999999e-01 0.0000000e+00 
6.9999999e-01 1.0000000e-01 0.0000000e+00 
1.0000000e-01 6.9999999e-01 0.0000000e+00 
5.0000000e-01 5.0000000e-01 0.0000000e+00 
6.4999998e-01 3.0000001e-01 0.0000000e+00 
3.0000001e-01 6.4999998e-01 0.0000000e+00 
6.9999999e-01 1.5000001e-01 0.0000000e+00 
1.5000001e-01 6.9999999e-01 0.0000000e+00 
6.0000002e-01 4.0000001e-01 0.0000000e+00 
4.0000001e-01 6.0000002e-01 0.0000000e+00 
6.9999999e-01 2.0000000e-01 0.0000000e+00 
2.0000000e-01 6.9999999e-01 0.0000000e+00 
6.9999999e-01 2.5000000e-01 0.0000000e+00 
5.5000001e-01 5.0000000e-01 0.0000000e+00 
5.0000000e-01 5.5000001e-01 0.0000000e+00 
2.5000000e-01 6.9999999e-01 0.0000000e+00 
0.0000000e+00 7.5000000e-01 0.0000000e+00 
7.5000000e-01 0.0000000e+00 0.0000000e+00 
6.0000002e-01 4.4999999e-01 0.0000000e+00 
4.4999999e-01 6.0000002e-01 0.0000000e+00 
7.5000000e-01 1.0000000e-01 0.0000000e+00 
1.0000000e-01 7.5000000e-01 0.0000000e+00 
6.9999999e-01 3.0000001e-01 0.0000000e+00 
3.0000001e-01 6.9999999e-01 0.0000000e+00 
6.4999998e-01 4.0000001e-01 0.0000000e+00 
4.0000001e-01 6.4999998e-01 0.0000000e+00 
2.0000000e-01 7.5000000e-01 0.0000000e+00 
7.5000000e-01 2.0000000e-01 0.0000000e+00 
6.0000002e-01 5.0000000e-01 0.0000000e+00 
5.0000000e-01 6.0000002e-01 0.0000000e+00 
6.9999999e-01 3.4999999e-01 0.0000000e+00 
3.4999999e-01 6.9999999e-01 0.0000000e+00 
0.0000000e+00 8.0000001e-01 0.0000000e+00 
8.0000001e-01 0.0000000e+00 0.0000000e+00 
8.0000001e-01 5.0000001e-02 0.0000000e+00 
5.0000001e-02 8.0000001e-01 0.0000000e+00 
4.0000001e-01 6.9999999e-01 0.0000000e+00 
6.9999999e-01 4.0000001e-01 0.0000000e+00 
1.0000000e-01 8.0000001e-01 0.0000000e+00 
8.0000001e-01 1.0000000e-01 0.0000000e+00 
7.5000000e-01 3.0000001e-01 0.0000000e+00 
3.0000001e-01 7.5000000e-01 0.0000000e+00 
5.5000001e-01 6.0000002e-01 0.0000000e+00 
6.0000002e-01 5.5000001e-01 0.0000000e+00 
1.5000001e-01 8.0000001e-01 0.0000000e+00 
8.0000001e-01 1.5000001e-01 0.0000000e+00 
6.4999998e-01 5.0000000e-01 0.0000000e+00 
5.0000000e-01 6.4999998e-01 0.0000000e+00 
2.0000000e-01 8.0000001e-01 0.0000000e+00 
8.0000001e-01 2.0000000e-01 0.0000000e+00 
6.9999999e-01 4.4999999e-01 0.0000000e+00 
4.4999999e-01 6.9999999e-01 0.0000000e+00 
8.0000001e-01 2.5000000e-01 0.0000000e+00 
2.5000000e-01 8.0000001e-01 0.0000000e+00 
6.0000002e-01 6.0000002e-01 0.0000000e+00 
4.0000001e-01 7.5000000e-01 0.0000000e+00 
7.5000000e-01 4.0000001e-01 0.0000000e+00 
0.0000000e+00 8.5000002e-01 0.0000000e+00 
8.5000002e-01 0.0000000e+00 0.0000000e+00 
3.0000001e-01 8.0000001e-01 0.0000000e+00 
8.0000001e-01 3.0000001e-01 0.0000000e+00 
1.0000000e-01 8.5000002e-01 0.0000000e+00 
8.5000002e-01 1.0000000e-01 0.0000000e+00 
6.9999999e-01 5.0000000e-01 0.0000000e+00 
5.0000000e-01 6.9999999e-01 0.0000000e+00 
8.0000001e-01 3.4999999e-01 0.0000000e+00 
8.5000002e-01 2.0000000e-01 0.0000000e+00 
2.0000000e-01 8.5000002e-01 0.0000000e+00 
3.4999999e-01 8.0000001e-01 0.0000000e+00 
6.4999998e-01 6.0000002e-01 0.0000000e+00 
6.0000002e-01 6.4999998e-01 0.0000000e+00 
6.9999999e-01 5.5000001e-01 0.0000000e+00 
5.5000001e-01 6.9999999e-01 0.0000000e+00 
8.0000001e-01 4.0000001e-01 0.0000000e+00 
4.0000001e-01 8.0000001e-01 0.0000000e+00 
8.9999998e-01 0.0000000e+00 0.0000000e+00 
0.0000000e+00 8.9999998e-01 0.0000000e+00 
5.0000001e-02 8.9999998e-01 0.0000000e+00 
7.5000000e-01 5.0000000e-01 0.0000000e+00 
8.9999998e-01 5.0000001e-02 0.0000000e+00 
5.0000000e-01 7.5000000e-01 0.0000000e+00 
8.5000002e-01 3.0000001e-01 0.0000000e+00 
3.0000001e-01 8.5000002e-01 0.0000000e+00 
8.9999998e-01 1.0000000e-01 0.0000000e+00 
1.0000000e-01 8.9999998e-01 0.0000000e+00 
8.9999998e-01 1.5000001e-01 0.0000000e+00 
1.5000001e-01 8.9999998e-01 0.0000000e+00 
8.0000001e-01 4.4999999e-01 0.0000000e+00 
4.4999999e-01 8.0000001e-01 0.0000000e+00 
6.0000002e-01 6.9999999e-01 0.0000000e+00 
6.9999999e-01 6.0000002e-01 0.0000000e+00 
2.0000000e-01 8.9999998e-01 0.0000000e+00 
8.9999998e-01 2.0000000e-01 0.0000000e+00 
8.9999998e-01 2.5000000e-01 0.0000000e+00 
2.5000000e-01 8.9999998e-01 0.0000000e+00 
4.0000001e-01 8.5000002e-01 0.0000000e+00 
8.5000002e-01 4.0000001e-01 0.0000000e+00 
8.0000001e-01 5.0000000e-01 0.0000000e+00 
5.0000000e-01 8.0000001e-01 0.0000000e+00 
3.0000001e-01 8.9999998e-01 0.0000000e+00 
8.9999998e-01 3.0000001e-01 0.0000000e+00 
9.4999999e-01 0.0000000e+00 0.0000000e+00 
0.0000000e+00 9.4999999e-01 0.0000000e+00 
6.9999999e-01 6.4999998e-01 0.0000000e+00 
6.4999998e-01 6.9999999e-01 0.0000000e+00 
1.0000000e-01 9.4999999e-01 0.0000000e+00 
9.4999999e-01 1.0000000e-01 0.0000000e+00 
7.5000000e-01 6.0000002e-01 0.0000000e+00 
6.0000002e-01 7.5000000e-01 0.0000000e+00 
8.9999998e-01 3.4999999e-01 0.0000000e+00 
3.4999999e-01 8.9999998e-01 0.0000000e+00 
2.0000000e-01 9.4999999e-01 0.0000000e+00 
9.4999999e-01 2.0000000e-01 0.0000000e+00 
5.5000001e-01 8.0000001e-01 0.0000000e+00 
8.0000001e-01 5.5000001e-01 0.0000000e+00 
4.0000001e-01 8.9999998e-01 0.0000000e+00 
8.9999998e-01 4.0000001e-01 0.0000000e+00 
5.0000000e-01 8.5000002e-01 0.0000000e+00 
8.5000002e-01 5.0000000e-01 0.0000000e+00 
6.9999999e-01 6.9999999e-01 0.0000000e+00 
3.0000001e-01 9.4999999e-01 0.0000000e+00 
9.4999999e-01 3.0000001e-01 0.0000000e+00 
8.0000001e-01 6.0000002e-01 0.0000000e+00 
6.0000002e-01 8.0000001e-01 0.0000000e+00 
0.0000000e+00 1.0000000e+00 0.0000000e+00 
1.0000000e+00 0.0000000e+00 0.0000000e+00 
1.0000000e+00 5.0000001e-02 0.0000000e+00 
5.0000001e-02 1.0000000e+00 0.0000000e+00 
1.0000000e+00 1.0000000e-01 0.0000000e+00 
1.0000000e-01 1.0000000e+00 0.0000000e+00 
4.4999999e-01 8.9999998e-01 0.0000000e+00 
8.9999998e-01 4.4999999e-01 0.0000000e+00 
1.0000000e+00 1.5000001e-01 0.0000000e+00 
1.5000001e-01 1.0000000e+00 0.0000000e+00 
1.0000000e+00 2.0000000e-01 0.0000000e+00 
2.0000000e-01 1.0000000e+00 0.0000000e+00 
6.9999999e-01 7.5000000e-01 0.0000000e+00 
7.5000000e-01 6.9999999e-01 0.0000000e+00 
5.0000000e-01 8.9999998e-01 0.0000000e+00 
8.9999998e-01 5.0000000e-01 0.0000000e+00 
6.4999998e-01 8.0000001e-01 0.0000000e+00 
2.5000000e-01 1.0000000e+00 0.0000000e+00 
8.0000001e-01 6.4999998e-01 0.0000000e+00 
4.0000001e-01 9.4999999e-01 0.0000000e+00 
1.0000000e+00 2.5000000e-01 0.0000000e+00 
9.4999999e-01 4.0000001e-01 0.0000000e+00 
6.0000002e-01 8.5000002e-01 0.0000000e+00 
8.5000002e-01 6.0000002e-01 0.0000000e+00 
1.0000000e+00 3.0000001e-01 0.0000000e+00 
3.0000001e-01 1.0000000e+00 0.0000000e+00 
5.5000001e-01 8.9999998e-01 0.0000000e+00 
8.9999998e-01 5.5000001e-01 0.0000000e+00 
1.0000000e+00 3.4999999e-01 0.0000000e+00 
3.4999999e-01 1.0000000e+00 0.0000000e+00 
8.0000001e-01 6.9999999e-01 0.0000000e+00 
6.9999999e-01 8.0000001e-01 0.0000000e+00 
9.4999999e-01 5.0000000e-01 0.0000000e+00 
5.0000000e-01 9.4999999e-01 0.0000000e+00 
4.0000001e-01 1.0000000e+00 0.0000000e+00 
1.0000000e+00 4.0000001e-01 0.0000000e+00 
8.9999998e-01 6.0000002e-01 0.0000000e+00 
6.0000002e-01 8.9999998e-01 0.0000000e+00 
7.5000000e-01 8.0000001e-01 0.0000000e+00 
1.0000000e+00 4.4999999e-01 0.0000000e+00 
4.4999999e-01 1.0000000e+00 0.0000000e+00 
8.0000001e-01 7.5000000e-01 0.0000000e+00 
6.9999999e-01 8.5000002e-01 0.0000000e+00 
8.5000002e-01 6.9999999e-01 0.0000000e+00 
8.9999998e-01 6.4999998e-01 0.0000000e+00 
6.4999998e-01 8.9999998e-01 0.0000000e+00 
5.0000000e-01 1.0000000e+00 0.0000000e+00 
1.0000000e+00 5.0000000e-01 0.0000000e+00 
9.4999999e-01 6.0000002e-01 0.0000000e+00 
6.0000002e-01 9.4999999e-01 0.0000000e+00 
8.0000001e-01 8.0000001e-01 0.0000000e+00 
8.9999998e-01 6.9999999e-01 0.0000000e+00 
6.9999999e-01 8.9999998e-01 0.0000000e+00 
1.0000000e+00 5.5000001e-01 0.0000000e+00 
5.5000001e-01 1.0000000e+00 0.0000000e+00 
1.0000000e+00 6.0000002e-01 0.0000000e+00 
6.0000002e-01 1.0000000e+00 0.0000000e+00 
8.5000002e-01 8.0000001e-01 0.0000000e+00 
8.0000001e-01 8.5000002e-01 0.0000000e+00 
7.5000000e-01 8.9999998e-01 0.0000000e+00 
8.9999998e-01 7.5000000e-01 0.0000000e+00 
6.9999999e-01 9.4999999e-01 0.0000000e+00 
9.4999999e-01 6.9999999e-01 0.0000000e+00 
1.0000000e+00 6.4999998e-01 0.0000000e+00 
6.4999998e-01 1.0000000e+00 0.0000000e+00 
8.9999998e-01 8.0000001e-01 0.0000000e+00 
8.0000001e-01 8.9999998e-01 0.0000000e+00 
1.0000000e+00 6.9999999e-01 0.0000000e+00 
6.9999999e-01 1.0000000e+00 0.0000000e+00 
8.5000002e-01 8.9999998e-01 0.0000000e+00 
8.9999998e-01 8.5000002e-01 0.0000000e+00 
9.4999999e-01 8.0000001e-01 0.0000000e+00 
8.0000001e-01 9.4999999e-01 0.0000000e+00 
1.0000000e+00 7.5000000e-01 0.0000000e+00 
7.5000000e-01 1.0000000e+00 0.0000000e+00 
8.9999998e-01 8.9999998e-01 0.0000000e+00 
8.0000001e-01 1.0000000e+00 0.0000000e+00 
1.0000000e+00 8.0000001e-01 0.0000000e+00 
8.9999998e-01 9.4999999e-01 0.0000000e+00 
9.4999999e-01 8.9999998e-01 0.0000000e+00 
1.0000000e+00 8.5000002e-01 0.0000000e+00 
8.5000002e-01 1.0000000e+00 0.0000000e+00 
8.9999998e-01 1.0000000e+00 0.0000000e+00 
1.0000000e+00 8.9999998e-01 0.0000000e+00 
1.0000000e+00 9.4999999e-01 0.0000000e+00 
9.4999999e-01 1.0000000e+00 0.0000000e+00 
1.0000000e+00 1.0000000e+00 0.0000000e+00 

CELLS 100 900
8 3 7 4 0 6 5 2 1
8 12 17 7 3 15 11 6 9
8 25 29 17 12 27 22 15 20
8 44 49 29 25 47 40 27 35
8 67 73 49 44 71 60 47 56
8 94 99 73 67 97 85 71 83
8 128 131 99 94 129 115 97 112
8 163 169 131 128 164 150 129 147
8 205 213 169 163 209 192 164 188
8 255 258 213 205 256 236 209 231
8 7 16 13 4 10 14 8 5
8 17 24 16 7 19 18 10 11
8 29 37 24 17 33 31 19 22
8 49 54 37 29 53 46 33 40
8 73 79 54 49 74 65 53 60
8 99 107 79 73 103 91 74 85
8 131 140 107 99 136 122 103 115
8 169 179 140 131 175 157 136 150
8 213 222 179 169 215 196 175 192
8 258 264 222 213 262 242 215 236
8 16 30 26 13 23 28 21 14
8 24 38 30 16 32 34 23 18
8 37 51 38 24 42 41 32 31
8 54 69 51 37 62 59 42 46
8 79 89 69 54 87 80 62 65
8 107 117 89 79 113 105 87 91
8 140 152 117 107 142 134 113 122
8 179 190 152 140 182 170 142 157
8 222 230 190 179 223 211 182 196
8 264 278 230 222 274 251 223 242
8 30 50 43 26 39 48 36 28
8 38 55 50 30 45 52 39 34
8 51 66 55 38 58 63 45 41
8 69 88 66 51 76 77 58 59
8 89 110 88 69 102 96 76 80
8 117 138 110 89 125 123 102 105
8 152 167 138 117 160 154 125 134
8 190 203 167 152 195 186 160 170
8 230 246 203 190 239 226 195 211
8 278 289 246 230 282 275 239 251
8 50 72 68 43 61 70 57 48
8 55 78 72 50 64 75 61 52
8 66 90 78 55 81 86 64 63
8 88 109 90 66 95 101 81 77
8 110 133 109 88 120 119 95 96
8 138 158 133 110 148 143 120 123
8 167 193 158 138 180 176 148 154
8 203 227 193 167 217 208 180 186
8 246 269 227 203 261 248 217 226
8 289 301 269 246 293 286 261 275
8 72 100 93 68 84 98 82 70
8 78 108 100 72 92 104 84 75
8 90 118 108 78 106 114 92 86
8 109 139 118 90 124 126 106 101
8 133 159 139 109 144 149 124 119
8 158 184 159 133 173 172 144 143
8 193 220 184 158 201 199 173 176
8 227 252 220 193 244 237 201 208
8 269 290 252 227 281 277 244 248
8 301 309 290 269 307 302 281 286
8 100 132 127 93 116 130 111 98
8 108 141 132 100 121 137 116 104
8 118 153 141 108 135 145 121 114
8 139 166 153 118 155 161 135 126
8 159 194 166 139 177 181 155 149
8 184 219 194 159 200 202 177 172
8 220 249 219 184 233 234 200 199
8 252 284 249 220 272 267 233 237
8 290 305 284 252 298 297 272 277
8 309 321 305 290 317 316 298 302
8 132 168 162 127 151 165 146 130
8 141 178 168 132 156 174 151 137
8 153 189 178 141 171 183 156 145
8 166 204 189 153 185 198 171 161
8 194 228 204 166 210 218 185 181
8 219 253 228 194 238 243 210 202
8 249 285 253 219 266 270 238 234
8 284 304 285 249 295 292 266 267
8 305 319 304 284 314 311 295 297
8 321 331 319 305 327 325 314 316
8 168 214 206 162 191 207 187 165
8 178 221 214 168 197 216 191 174
8 189 229 221 178 212 224 197 183
8 204 245 229 189 225 240 212 198
8 228 268 245 204 247 260 225 218
8 253 291 268 228 276 280 247 243
8 285 306 291 253 296 299 276 270
8 304 320 306 285 312 313 296 292
8 319 329 320 304 324 323 312 311
8 331 337 329 319 334 333 324 325
8 214 259 254 206 235 257 232 207
8 221 265 259 214 241 263 235 216
8 229 279 265 221 250 271 241 224
8 245 288 279 229 273 283 250 240
8 268 300 288 245 287 294 273 260
8 291 310 300 268 303 308 287 280
8 306 322 310 291 315 318 303 299
8 320 330 322 306 326 328 315 313
8 329 336 330 320 332 335 326 323
8 337 340 336 329 338 339 332 333

CELL_TYPES 100
23
23
23
23
23
23
23
23
23
23
23
23
23
23
23
23
23
23
23
23
23
23
23
23
23
23
23
23
23
23
23
23
23
23
23
23
23
23
23
23
23
23
23
23
23
23
23
23
23
23
23
23
23
23
23
23
23
23
23
23
23
23
23
23
23
23
23
23
23
23
23
23
23
23
23
23
23
23
23
23
23
23
23
23
23
23
23
23
23
23
23
23
23
23
23
23
23
23
23
23
POINT_DATA 341
FIELD FieldData 1
TEMPERATURE 1 341  float
0.0000000e+00
1.5643446e-01
0.0000000e+00
3.0901700e-01
0.0000000e+00
1.4428043e-01
3.0041116e-01
2.8441474e-01
0.0000000e+00
4.5399049e-01
2.6277626e-01
4.1741729e-01
5.8778524e-01
0.0000000e+00
1.1929308e-01
5.7005656e-01
2.3462242e-01
5.3849626e-01
3.4252140e-01
4.9181786e-01
7.0710677e-01
0.0000000e+00
6.4228368e-01
2.0190910e-01
4.3997398e-01
8.0901700e-01
0.0000000e+00
7.8253406e-01
8.4371939e-02
7.3464167e-01
1.6636503e-01
5.1525241e-01
3.7653735e-01
6.6012466e-01
2.4069661e-01
8.9100653e-01
0.0000000e+00
5.5456746e-01
3.0213693e-01
1.2648134e-01
8.0794114e-01
3.7604681e-01
5.0410205e-01
0.0000000e+00
9.5105654e-01
2.3855552e-01
6.2751001e-01
9.2083287e-01
4.2498246e-02
8.6655450e-01
8.2262345e-02
4.4726706e-01
1.2815604e-01
7.8396153e-01
6.8080539e-01
1.7198166e-01
9.8768836e-01
0.0000000e+00
3.6585802e-01
5.2651215e-01
8.9978707e-01
4.5625746e-02
6.3640535e-01
2.2309057e-01
5.7186797e-02
7.3194879e-01
2.7767873e-01
1.0000000e+00
0.0000000e+00
5.8908129e-01
-3.1364703e-04
9.6962845e-01
-5.4058625e-04
9.1554648e-01
8.3193564e-01
6.4916408e-04
5.1763231e-01
3.5760173e-01
5.1723383e-03
7.2863936e-01
6.5913510e-01
1.1695375e-01
0.0000000e+00
9.8768836e-01
-4.6253931e-02
9.0026772e-01
3.8283365e-03
6.9944191e-01
4.3246427e-01
6.7049140e-01
3.6969937e-03
7.3132461e-01
-5.9988953e-02
0.0000000e+00
9.5105654e-01
0.0000000e+00
0.0000000e+00
9.2091447e-01
-4.3145936e-02
8.6672986e-01
-8.3810098e-02
0.0000000e+00
0.0000000e+00
7.8519207e-01
-1.3107845e-01
6.5767282e-01
-1.1621542e-01
6.8415368e-01
-1.8149836e-01
0.0000000e+00
0.0000000e+00
0.0000000e+00
8.9100653e-01
6.3890767e-01
-2.2861399e-01
8.0830097e-01
-1.2793577e-01
5.9012884e-01
-2.7910948e-01
0.0000000e+00
0.0000000e+00
-2.4165264e-01
6.2919039e-01
0.0000000e+00
0.0000000e+00
5.1665586e-01
-3.5624954e-01
0.0000000e+00
8.0901700e-01
7.8263134e-01
-8.4659263e-02
7.3488301e-01
-1.6679777e-01
0.0000000e+00
5.2565724e-01
-3.6446658e-01
6.6038829e-01
-2.4164687e-01
4.3025956e-01
-4.3079802e-01
5.5430120e-01
-3.0155575e-01
5.0268316e-01
0.0000000e+00
0.0000000e+00
-3.7417269e-01
0.0000000e+00
7.0710677e-01
0.0000000e+00
0.0000000e+00
6.4233154e-01
-2.0206280e-01
4.4528630e-01
-4.4578978e-01
3.5598379e-01
-5.1699084e-01
-3.7618494e-01
5.1494950e-01
0.0000000e+00
0.0000000e+00
3.6424097e-01
-5.2601409e-01
0.0000000e+00
5.8778524e-01
5.7007349e-01
-1.1937606e-01
-5.8938175e-01
2.7913722e-01
-2.3478907e-01
5.3849250e-01
3.7385476e-01
-5.0328672e-01
0.0000000e+00
0.0000000e+00
-3.4241271e-01
4.9170828e-01
0.0000000e+00
0.0000000e+00
-4.3977147e-01
4.3969780e-01
1.1628888e-01
-6.5911257e-01
3.7608916e-01
-5.1500738e-01
-4.3245125e-01
-6.3683450e-01
2.2869158e-01
0.0000000e+00
4.5399049e-01
-5.5431956e-01
3.0139416e-01
-2.6280931e-01
4.1740867e-01
-3.7132902e-03
-6.6998655e-01
2.4169742e-01
3.4237087e-01
-4.9171922e-01
-6.2789112e-01
-3.5757500e-01
-5.1766527e-01
-1.1694625e-01
-6.5895468e-01
1.8159550e-01
-6.8115276e-01
3.0901700e-01
0.0000000e+00
-1.4428762e-01
-3.8613600e-03
3.0040461e-01
-6.9891685e-01
2.4159007e-01
-6.6004783e-01
2.8440112e-01
-2.8440106e-01
2.6280198e-01
-4.1739571e-01
6.0043279e-02
-7.3168564e-01
-5.8920771e-01
-2.7766544e-01
-5.3843689e-01
2.3477161e-01
2.0203444e-01
-6.4223689e-01
-7.8405237e-01
1.3110115e-01
-5.2162404e-03
-7.2840172e-01
-7.3465651e-01
1.6678794e-01
1.5643446e-01
0.0000000e+00
-3.6583307e-01
-5.2654248e-01
-3.0040127e-01
1.4428625e-01
-2.2308110e-01
-6.3655561e-01
1.2792827e-01
-8.0791527e-01
-5.7003659e-01
1.1936913e-01
-7.3156619e-01
-5.7186622e-02
-8.6651844e-01
8.3828568e-02
-8.3157325e-01
-6.4956327e-04
-4.4724843e-01
-7.8253114e-01
8.4655926e-02
-1.7197624e-01
-6.8084633e-01
-0.0000000e+00
1.2246469e-16
0.0000000e+00
-1.5643446e-01
0.0000000e+00
-3.0901700e-01
-8.9980131e-01
4.6265334e-02
0.0000000e+00
-4.5399049e-01
0.0000000e+00
-5.8778524e-01
-5.0409544e-01
-3.7602127e-01
-9.1553152e-01
5.4936047e-04
-6.2764412e-01
-7.0710677e-01
-2.3854335e-01
-9.2082256e-01
0.0000000e+00
4.3152254e-02
-7.8394967e-01
-1.2815365e-01
0.0000000e+00
-8.0901700e-01
-8.9975601e-01
-4.5624822e-02
0.0000000e+00
-8.9100653e-01
-3.0211201e-01
-5.5462861e-01
3.1874844e-04
-9.6959883e-01
-9.5105654e-01
0.0000000e+00
-8.2256526e-02
-8.6646056e-01
-5.1527178e-01
0.0000000e+00
-9.8768836e-01
-3.7653276e-01
-6.6014755e-01
-2.4068558e-01
-1.2647580e-01
-8.0791533e-01
-1.0000000e+00
0.0000000e+00
-4.2495381e-02
-9.2080224e-01
-4.3997145e-01
-1.6636205e-01
-7.3466027e-01
0.0000000e+00
-9.8768836e-01
0.0000000e+00
-9.5105654e-01
-3.4251863e-01
-4.9182495e-01
-6.4229608e-01
-2.0190541e-01
-7.8253269e-01
-8.4370479e-02
0.0000000e+00
-8.9100653e-01
-2.3462258e-01
-5.3849834e-01
0.0000000e+00
-8.0901700e-01
-4.1741848e-01
-2.6277620e-01
-1.1929303e-01
-5.7005960e-01
0.0000000e+00
-7.0710677e-01
-2.8441608e-01
-5.8778524e-01
0.0000000e+00
-3.0041164e-01
-1.4428094e-01
0.0000000e+00
-4.5399049e-01
-3.0901700e-01
0.0000000e+00
0.0000000e+00
-1.5643446e-01
-1.2246469e-16
CELL_DATA 100
FIELD FieldData 0
