# vtk DataFile Version 4.0
vtk output
ASCII
DATASET UNSTRUCTURED_GRID
POINTS 14981 float
0.0000000e+00 0.0000000e+00 0.0000000e+00 
0.0000000e+00 7.1428572e-03 0.0000000e+00 
7.1428572e-03 0.0000000e+00 0.0000000e+00 
1.4285714e-02 0.0000000e+00 0.0000000e+00 
0.0000000e+00 1.4285714e-02 0.0000000e+00 
7.1428572e-03 1.4285714e-02 0.0000000e+00 
1.4285714e-02 7.1428572e-03 0.0000000e+00 
1.4285714e-02 1.4285714e-02 0.0000000e+00 
2.1428572e-02 0.0000000e+00 0.0000000e+00 
0.0000000e+00 2.1428572e-02 0.0000000e+00 
2.1428572e-02 1.4285714e-02 0.0000000e+00 
1.4285714e-02 2.1428572e-02 0.0000000e+00 
2.8571429e-02 0.0000000e+00 0.0000000e+00 
0.0000000e+00 2.8571429e-02 0.0000000e+00 
2.8571429e-02 7.1428572e-03 0.0000000e+00 
7.1428572e-03 2.8571429e-02 0.0000000e+00 
1.4285714e-02 2.8571429e-02 0.0000000e+00 
2.8571429e-02 1.4285714e-02 0.0000000e+00 
2.8571429e-02 2.1428572e-02 0.0000000e+00 
0.0000000e+00 3.5714287e-02 0.0000000e+00 
3.5714287e-02 0.0000000e+00 0.0000000e+00 
2.1428572e-02 2.8571429e-02 0.0000000e+00 
3.5714287e-02 1.4285714e-02 0.0000000e+00 
1.4285714e-02 3.5714287e-02 0.0000000e+00 
2.8571429e-02 2.8571429e-02 0.0000000e+00 
4.2857144e-02 0.0000000e+00 0.0000000e+00 
0.0000000e+00 4.2857144e-02 0.0000000e+00 
4.2857144e-02 7.1428572e-03 0.0000000e+00 
7.1428572e-03 4.2857144e-02 0.0000000e+00 
1.4285714e-02 4.2857144e-02 0.0000000e+00 
4.2857144e-02 1.4285714e-02 0.0000000e+00 
3.5714287e-02 2.8571429e-02 0.0000000e+00 
2.8571429e-02 3.5714287e-02 0.0000000e+00 
4.2857144e-02 2.1428572e-02 0.0000000e+00 
2.1428572e-02 4.2857144e-02 0.0000000e+00 
5.0000001e-02 0.0000000e+00 0.0000000e+00 
0.0000000e+00 5.0000001e-02 0.0000000e+00 
4.2857144e-02 2.8571429e-02 0.0000000e+00 
2.8571429e-02 4.2857144e-02 0.0000000e+00 
5.0000001e-02 1.4285714e-02 0.0000000e+00 
1.4285714e-02 5.0000001e-02 0.0000000e+00 
3.5714287e-02 4.2857144e-02 0.0000000e+00 
4.2857144e-02 3.5714287e-02 0.0000000e+00 
0.0000000e+00 5.7142857e-02 0.0000000e+00 
5.7142857e-02 0.0000000e+00 0.0000000e+00 
7.1428572e-03 5.7142857e-02 0.0000000e+00 
5.7142857e-02 7.1428572e-03 0.0000000e+00 
5.0000001e-02 2.8571429e-02 0.0000000e+00 
2.8571429e-02 5.0000001e-02 0.0000000e+00 
5.7142857e-02 1.4285714e-02 0.0000000e+00 
1.4285714e-02 5.7142857e-02 0.0000000e+00 
4.2857144e-02 4.2857144e-02 0.0000000e+00 
5.7142857e-02 2.1428572e-02 0.0000000e+00 
2.1428572e-02 5.7142857e-02 0.0000000e+00 
5.7142857e-02 2.8571429e-02 0.0000000e+00 
2.8571429e-02 5.7142857e-02 0.0000000e+00 
6.4285718e-02 0.0000000e+00 0.0000000e+00 
0.0000000e+00 6.4285718e-02 0.0000000e+00 
6.4285718e-02 1.4285714e-02 0.0000000e+00 
1.4285714e-02 6.4285718e-02 0.0000000e+00 
4.2857144e-02 5.0000001e-02 0.0000000e+00 
5.0000001e-02 4.2857144e-02 0.0000000e+00 
5.7142857e-02 3.5714287e-02 0.0000000e+00 
3.5714287e-02 5.7142857e-02 0.0000000e+00 
6.4285718e-02 2.8571429e-02 0.0000000e+00 
2.8571429e-02 6.4285718e-02 0.0000000e+00 
4.2857144e-02 5.7142857e-02 0.0000000e+00 
0.0000000e+00 7.1428575e-02 0.0000000e+00 
7.1428575e-02 0.0000000e+00 0.0000000e+00 
5.7142857e-02 4.2857144e-02 0.0000000e+00 
7.1428572e-03 7.1428575e-02 0.0000000e+00 
7.1428575e-02 7.1428572e-03 0.0000000e+00 
7.1428575e-02 1.4285714e-02 0.0000000e+00 
1.4285714e-02 7.1428575e-02 0.0000000e+00 
7.1428575e-02 2.1428572e-02 0.0000000e+00 
2.1428572e-02 7.1428575e-02 0.0000000e+00 
5.7142857e-02 5.0000001e-02 0.0000000e+00 
5.0000001e-02 5.7142857e-02 0.0000000e+00 
7.1428575e-02 2.8571429e-02 0.0000000e+00 
2.8571429e-02 7.1428575e-02 0.0000000e+00 
4.2857144e-02 6.4285718e-02 0.0000000e+00 
6.4285718e-02 4.2857144e-02 0.0000000e+00 
0.0000000e+00 7.8571431e-02 0.0000000e+00 
7.8571431e-02 0.0000000e+00 0.0000000e+00 
1.4285714e-02 7.8571431e-02 0.0000000e+00 
7.1428575e-02 3.5714287e-02 0.0000000e+00 
7.8571431e-02 1.4285714e-02 0.0000000e+00 
3.5714287e-02 7.1428575e-02 0.0000000e+00 
5.7142857e-02 5.7142857e-02 0.0000000e+00 
7.1428575e-02 4.2857144e-02 0.0000000e+00 
4.2857144e-02 7.1428575e-02 0.0000000e+00 
2.8571429e-02 7.8571431e-02 0.0000000e+00 
7.8571431e-02 2.8571429e-02 0.0000000e+00 
8.5714288e-02 0.0000000e+00 0.0000000e+00 
0.0000000e+00 8.5714288e-02 0.0000000e+00 
5.7142857e-02 6.4285718e-02 0.0000000e+00 
7.1428572e-03 8.5714288e-02 0.0000000e+00 
6.4285718e-02 5.7142857e-02 0.0000000e+00 
8.5714288e-02 7.1428572e-03 0.0000000e+00 
1.4285714e-02 8.5714288e-02 0.0000000e+00 
8.5714288e-02 1.4285714e-02 0.0000000e+00 
5.0000001e-02 7.1428575e-02 0.0000000e+00 
7.1428575e-02 5.0000001e-02 0.0000000e+00 
8.5714288e-02 2.1428572e-02 0.0000000e+00 
2.1428572e-02 8.5714288e-02 0.0000000e+00 
4.2857144e-02 7.8571431e-02 0.0000000e+00 
7.8571431e-02 4.2857144e-02 0.0000000e+00 
8.5714288e-02 2.8571429e-02 0.0000000e+00 
2.8571429e-02 8.5714288e-02 0.0000000e+00 
7.1428575e-02 5.7142857e-02 0.0000000e+00 
5.7142857e-02 7.1428575e-02 0.0000000e+00 
9.2857145e-02 0.0000000e+00 0.0000000e+00 
8.5714288e-02 3.5714287e-02 0.0000000e+00 
3.5714287e-02 8.5714288e-02 0.0000000e+00 
0.0000000e+00 9.2857145e-02 0.0000000e+00 
1.4285714e-02 9.2857145e-02 0.0000000e+00 
9.2857145e-02 1.4285714e-02 0.0000000e+00 
8.5714288e-02 4.2857144e-02 0.0000000e+00 
4.2857144e-02 8.5714288e-02 0.0000000e+00 
6.4285718e-02 7.1428575e-02 0.0000000e+00 
7.1428575e-02 6.4285718e-02 0.0000000e+00 
7.8571431e-02 5.7142857e-02 0.0000000e+00 
5.7142857e-02 7.8571431e-02 0.0000000e+00 
2.8571429e-02 9.2857145e-02 0.0000000e+00 
9.2857145e-02 2.8571429e-02 0.0000000e+00 
8.5714288e-02 5.0000001e-02 0.0000000e+00 
5.0000001e-02 8.5714288e-02 0.0000000e+00 
1.0000000e-01 0.0000000e+00 0.0000000e+00 
0.0000000e+00 1.0000000e-01 0.0000000e+00 
1.0000000e-01 7.1428572e-03 0.0000000e+00 
7.1428572e-03 1.0000000e-01 0.0000000e+00 
7.1428575e-02 7.1428575e-02 0.0000000e+00 
1.4285714e-02 1.0000000e-01 0.0000000e+00 
1.0000000e-01 1.4285714e-02 0.0000000e+00 
4.2857144e-02 9.2857145e-02 0.0000000e+00 
1.0000000e-01 2.1428572e-02 0.0000000e+00 
2.1428572e-02 1.0000000e-01 0.0000000e+00 
9.2857145e-02 4.2857144e-02 0.0000000e+00 
8.5714288e-02 5.7142857e-02 0.0000000e+00 
5.7142857e-02 8.5714288e-02 0.0000000e+00 
1.0000000e-01 2.8571429e-02 0.0000000e+00 
2.8571429e-02 1.0000000e-01 0.0000000e+00 
7.8571431e-02 7.1428575e-02 0.0000000e+00 
7.1428575e-02 7.8571431e-02 0.0000000e+00 
3.5714287e-02 1.0000000e-01 0.0000000e+00 
1.0000000e-01 3.5714287e-02 0.0000000e+00 
8.5714288e-02 6.4285718e-02 0.0000000e+00 
6.4285718e-02 8.5714288e-02 0.0000000e+00 
1.0714286e-01 0.0000000e+00 0.0000000e+00 
0.0000000e+00 1.0714286e-01 0.0000000e+00 
1.4285714e-02 1.0714286e-01 0.0000000e+00 
1.0714286e-01 1.4285714e-02 0.0000000e+00 
1.0000000e-01 4.2857144e-02 0.0000000e+00 
4.2857144e-02 1.0000000e-01 0.0000000e+00 
9.2857145e-02 5.7142857e-02 0.0000000e+00 
5.7142857e-02 9.2857145e-02 0.0000000e+00 
2.8571429e-02 1.0714286e-01 0.0000000e+00 
1.0714286e-01 2.8571429e-02 0.0000000e+00 
8.5714288e-02 7.1428575e-02 0.0000000e+00 
7.1428575e-02 8.5714288e-02 0.0000000e+00 
5.0000001e-02 1.0000000e-01 0.0000000e+00 
1.0000000e-01 5.0000001e-02 0.0000000e+00 
0.0000000e+00 1.1428571e-01 0.0000000e+00 
1.1428571e-01 0.0000000e+00 0.0000000e+00 
1.1428571e-01 7.1428572e-03 0.0000000e+00 
7.1428572e-03 1.1428571e-01 0.0000000e+00 
1.1428571e-01 1.4285714e-02 0.0000000e+00 
1.0000000e-01 5.7142857e-02 0.0000000e+00 
5.7142857e-02 1.0000000e-01 0.0000000e+00 
1.4285714e-02 1.1428571e-01 0.0000000e+00 
1.0714286e-01 4.2857144e-02 0.0000000e+00 
4.2857144e-02 1.0714286e-01 0.0000000e+00 
1.1428571e-01 2.1428572e-02 0.0000000e+00 
8.5714288e-02 7.8571431e-02 0.0000000e+00 
7.8571431e-02 8.5714288e-02 0.0000000e+00 
2.1428572e-02 1.1428571e-01 0.0000000e+00 
7.1428575e-02 9.2857145e-02 0.0000000e+00 
9.2857145e-02 7.1428575e-02 0.0000000e+00 
1.1428571e-01 2.8571429e-02 0.0000000e+00 
2.8571429e-02 1.1428571e-01 0.0000000e+00 
6.4285718e-02 1.0000000e-01 0.0000000e+00 
1.0000000e-01 6.4285718e-02 0.0000000e+00 
1.1428571e-01 3.5714287e-02 0.0000000e+00 
3.5714287e-02 1.1428571e-01 0.0000000e+00 
8.5714288e-02 8.5714288e-02 0.0000000e+00 
1.2142857e-01 0.0000000e+00 0.0000000e+00 
0.0000000e+00 1.2142857e-01 0.0000000e+00 
5.7142857e-02 1.0714286e-01 0.0000000e+00 
1.0714286e-01 5.7142857e-02 0.0000000e+00 
4.2857144e-02 1.1428571e-01 0.0000000e+00 
1.1428571e-01 4.2857144e-02 0.0000000e+00 
1.4285714e-02 1.2142857e-01 0.0000000e+00 
1.2142857e-01 1.4285714e-02 0.0000000e+00 
7.1428575e-02 1.0000000e-01 0.0000000e+00 
1.0000000e-01 7.1428575e-02 0.0000000e+00 
1.1428571e-01 5.0000001e-02 0.0000000e+00 
2.8571429e-02 1.2142857e-01 0.0000000e+00 
1.2142857e-01 2.8571429e-02 0.0000000e+00 
5.0000001e-02 1.1428571e-01 0.0000000e+00 
9.2857145e-02 8.5714288e-02 0.0000000e+00 
8.5714288e-02 9.2857145e-02 0.0000000e+00 
1.0000000e-01 7.8571431e-02 0.0000000e+00 
7.8571431e-02 1.0000000e-01 0.0000000e+00 
5.7142857e-02 1.1428571e-01 0.0000000e+00 
1.1428571e-01 5.7142857e-02 0.0000000e+00 
0.0000000e+00 1.2857144e-01 0.0000000e+00 
1.2857144e-01 0.0000000e+00 0.0000000e+00 
1.2142857e-01 4.2857144e-02 0.0000000e+00 
4.2857144e-02 1.2142857e-01 0.0000000e+00 
7.1428572e-03 1.2857144e-01 0.0000000e+00 
7.1428575e-02 1.0714286e-01 0.0000000e+00 
1.0714286e-01 7.1428575e-02 0.0000000e+00 
1.2857144e-01 7.1428572e-03 0.0000000e+00 
1.2857144e-01 1.4285714e-02 0.0000000e+00 
1.4285714e-02 1.2857144e-01 0.0000000e+00 
1.2857144e-01 2.1428572e-02 0.0000000e+00 
2.1428572e-02 1.2857144e-01 0.0000000e+00 
1.1428571e-01 6.4285718e-02 0.0000000e+00 
6.4285718e-02 1.1428571e-01 0.0000000e+00 
1.2857144e-01 2.8571429e-02 0.0000000e+00 
2.8571429e-02 1.2857144e-01 0.0000000e+00 
8.5714288e-02 1.0000000e-01 0.0000000e+00 
1.0000000e-01 8.5714288e-02 0.0000000e+00 
3.5714287e-02 1.2857144e-01 0.0000000e+00 
1.2857144e-01 3.5714287e-02 0.0000000e+00 
1.2142857e-01 5.7142857e-02 0.0000000e+00 
5.7142857e-02 1.2142857e-01 0.0000000e+00 
1.1428571e-01 7.1428575e-02 0.0000000e+00 
7.1428575e-02 1.1428571e-01 0.0000000e+00 
1.2857144e-01 4.2857144e-02 0.0000000e+00 
[...]
POINT_DATA 14981
FIELD FieldData 1
TEMPERATURE 1 14981  float
0.0000000e+00
0.0000000e+00
2.2438064e-02
4.4864830e-02
0.0000000e+00
2.2415472e-02
4.4853538e-02
4.4819653e-02
6.7269005e-02
0.0000000e+00
6.7201272e-02
4.4763207e-02
8.9639306e-02
0.0000000e+00
8.9616746e-02
2.2347737e-02
4.4684220e-02
8.9549050e-02
8.9436270e-02
0.0000000e+00
1.1196448e-01
6.6998206e-02
1.1185174e-01
4.4582732e-02
8.9278452e-02
1.3423327e-01
0.0000000e+00
1.3419947e-01
2.2234997e-02
4.4458795e-02
1.3409810e-01
1.1151375e-01
8.9075685e-02
1.3392922e-01
6.6660210e-02
1.5643446e-01
0.0000000e+00
1.3369289e-01
8.8828057e-02
1.5627696e-01
4.4312473e-02
1.1095118e-01
1.3338925e-01
0.0000000e+00
1.7855689e-01
2.2077478e-02
1.7851195e-01
1.5580471e-01
8.8535711e-02
1.7837709e-01
4.4143837e-02
1.3301843e-01
1.7815246e-01
6.6187970e-02
1.7783809e-01
8.8198774e-02
2.0058942e-01
0.0000000e+00
2.0038745e-01
4.3952975e-02
1.3258064e-01
1.5501870e-01
1.7743418e-01
1.1016517e-01
1.9978191e-01
8.7817438e-02
1.3207610e-01
0.0000000e+00
2.2252093e-01
1.7694092e-01
2.1875499e-02
2.2246492e-01
2.2229686e-01
4.3739978e-02
2.2201690e-01
6.5582439e-02
1.7635858e-01
1.5392052e-01
2.2162513e-01
8.7391876e-02
1.3150504e-01
1.9877405e-01
0.0000000e+00
2.4434040e-01
4.3504965e-02
2.2112179e-01
2.4409439e-01
1.0915731e-01
1.7568743e-01
2.2050707e-01
1.3086776e-01
8.6922310e-02
2.4335678e-01
2.6603684e-01
0.0000000e+00
1.7492782e-01
2.1629464e-02
1.9736588e-01
2.6596987e-01
4.3248035e-02
2.6576898e-01
1.5251234e-01
2.1978135e-01
2.6543427e-01
6.4844832e-02
1.3016461e-01
2.4212909e-01
2.6496586e-01
8.6408973e-02
2.1894495e-01
1.7408012e-01
2.8759933e-01
2.6436409e-01
1.0792962e-01
0.0000000e+00
4.2969335e-02
2.8730974e-01
2.6362917e-01
1.2939590e-01
1.9556025e-01
2.1799831e-01
2.4041378e-01
1.7314477e-01
8.5852139e-02
2.8644156e-01
2.6276150e-01
1.5079704e-01
3.0901700e-01
0.0000000e+00
3.0893922e-01
2.1339871e-02
2.1694189e-01
4.2668998e-02
3.0870584e-01
1.2856205e-01
3.0831704e-01
6.3976638e-02
2.8499651e-01
2.6176155e-01
1.7212224e-01
3.0777299e-01
8.5252061e-02
2.3821431e-01
2.1577625e-01
1.0648457e-01
3.0707398e-01
2.6062977e-01
1.9336078e-01
3.3027905e-01
0.0000000e+00
4.2347174e-02
3.2994652e-01
3.0622032e-01
1.2766345e-01
2.8297752e-01
1.7101304e-01
8.4609069e-02
3.2894948e-01
2.5936678e-01
2.1450195e-01
1.4877805e-01
3.0521250e-01
0.0000000e+00
3.5137483e-01
3.5128638e-01
2.1007303e-02
3.5102102e-01
3.0405098e-01
1.6981773e-01
4.2004026e-02
3.2729000e-01
1.2670057e-01
3.5057893e-01
2.5797319e-01
2.3553512e-01
6.2979601e-02
2.1311964e-01
2.8038865e-01
3.4996030e-01
8.3923467e-02
1.9077191e-01
3.0273637e-01
3.4916547e-01
1.0482507e-01
2.5644967e-01
3.7229365e-01
0.0000000e+00
1.6853692e-01
3.2497138e-01
1.2567389e-01
3.4819481e-01
4.1639734e-02
3.7191880e-01
2.1163002e-01
3.0126932e-01
3.4704885e-01
8.3195612e-02
3.7079492e-01
1.4645943e-01
2.7723512e-01
2.5479704e-01
2.9965058e-01
2.3238158e-01
1.6717122e-01
3.4572810e-01
0.0000000e+00
3.9302504e-01
3.6892435e-01
1.2458394e-01
2.0632429e-02
2.1003385e-01
3.2199833e-01
3.9292610e-01
3.9262927e-01
4.1254468e-02
3.9213479e-01
6.1855737e-02
3.4423330e-01
1.8779886e-01
3.9144284e-01
8.2425855e-02
2.5301611e-01
2.9788095e-01
1.0295448e-01
3.9055380e-01
3.6631078e-01
1.6572137e-01
3.4256515e-01
2.0833190e-01
3.8946807e-01
1.2343124e-01
4.1355851e-01
0.0000000e+00
2.7352327e-01
4.0848434e-02
4.1314209e-01
2.9596132e-01
3.1837681e-01
2.5110781e-01
1.4384587e-01
3.8818628e-01
2.2876006e-01
3.4072453e-01
8.1614606e-02
4.1189367e-01
3.8670897e-01
1.6418806e-01
2.0652507e-01
3.6295953e-01
2.9389268e-01
4.0981573e-01
1.2221641e-01
2.4907303e-01
3.3871233e-01
4.3388373e-01
0.0000000e+00
2.0216003e-02
4.3377453e-01
4.0421829e-02
4.3344685e-01
3.8503700e-01
1.8444759e-01
6.0607299e-02
4.3290097e-01
4.3213707e-01
8.0762252e-02
3.1411412e-01
2.9167604e-01
2.0461422e-01
3.8317111e-01
1.6257209e-01
4.0691251e-01
3.3652958e-01
2.6926059e-01
1.0087654e-01
4.3115559e-01
2.4691285e-01
3.5887733e-01
4.2995700e-01
1.2094003e-01
0.0000000e+00
4.5399049e-01
3.8111231e-01
2.2467785e-01
3.9974872e-02
4.5353338e-01
4.2854196e-01
1.4094263e-01
2.8931254e-01
3.3417737e-01
4.5216289e-01
7.9869241e-02
4.0318978e-01
2.0260037e-01
4.2691109e-01
1.6087425e-01
3.7886158e-01
2.4462833e-01
4.4988182e-01
1.1960275e-01
4.2506528e-01
3.3165690e-01
1.8072487e-01
3.0921885e-01
4.7386867e-01
0.0000000e+00
1.9758867e-02
3.5407239e-01
2.8680336e-01
4.7374937e-01
4.7339150e-01
3.9507784e-02
5.9236806e-02
3.7642011e-01
4.7279531e-01
2.6445565e-01
7.8936003e-02
2.0048448e-01
4.7196102e-01
4.2300540e-01
1.5909541e-01
2.4222064e-01
3.9865512e-01
4.4669473e-01
9.8595455e-02
4.7088909e-01
3.2896942e-01
3.7378907e-01
1.1820526e-01
2.8414977e-01
4.6958005e-01
2.2014317e-01
4.2073259e-01
4.9350822e-01
0.0000000e+00
3.9020803e-02
1.3775554e-01
4.9301130e-01
4.6803460e-01
1.9826767e-01
4.4260806e-01
2.3969099e-01
4.1824785e-01
3.4855437e-01
3.2611632e-01
4.9152154e-01
7.7963024e-02
1.5723646e-01
4.6625343e-01
3.7096986e-01
3.0370086e-01
3.9331758e-01
2.8135312e-01
4.6423751e-01
1.7663822e-01
4.8904189e-01
1.1674824e-01
2.5911811e-01
4.1555259e-01
0.0000000e+00
5.1289928e-01
5.1277018e-01
1.9261938e-02
3.2309899e-01
3.6796382e-01
5.1238281e-01
3.8514175e-02
1.9595100e-01
4.6198782e-01
4.3763006e-01
5.1173753e-01
2.3704065e-01
5.7747021e-02
7.6950788e-02
5.1083452e-01
4.8557737e-01
1.5529834e-01
4.1264802e-01
2.7841476e-01
9.6115813e-02
5.0967431e-01
2.1516515e-01
4.5950553e-01
1.1523243e-01
5.0825745e-01
3.6477253e-01
3.4233445e-01
3.8718799e-01
3.1991899e-01
5.0658470e-01
4.0953571e-01
1.3429104e-01
0.0000000e+00
2.9757124e-01
5.3203207e-01
2.3427093e-01
4.5679185e-01
1.9353569e-01
4.8113498e-01
5.3149635e-01
3.7988156e-02
2.7533627e-01
4.3177071e-01
5.0465679e-01
1.5328202e-01
5.2989030e-01
7.5899810e-02
3.6139750e-01
4.5384818e-01
2.5325876e-01
4.0621716e-01
3.1657785e-01
5.0247484e-01
1.7219582e-01
1.1365861e-01
5.2721709e-01
4.7572365e-01
2.3138328e-01
0.0000000e+00
1.9102290e-01
5.0003988e-01
5.5089700e-01
1.8726217e-02
5.5075830e-01
2.7211908e-01
4.5067593e-01
5.5034226e-01
3.7443005e-02
5.4964918e-01
3.5784057e-01
5.6140941e-02
3.8027865e-01
1.5118851e-01
4.0269411e-01
3.3542511e-01
5.2348214e-01
5.4867923e-01
7.4810602e-02
2.0975381e-01
3.1307736e-01
4.2504182e-01
4.9735311e-01
9.3442604e-02
5.4743308e-01
2.9084238e-01
4.4727683e-01
1.1202754e-01
5.4591125e-01
2.2837910e-01
4.9441591e-01
3.9896825e-01
3.5410342e-01
4.6935430e-01
2.6876488e-01
5.4411459e-01
1.8841395e-01
5.1869297e-01
1.3055608e-01
0.0000000e+00
5.6948447e-01
3.6879003e-02
5.6891108e-01
5.4204386e-01
4.4365245e-01
3.0941921e-01
1.4901887e-01
7.3683731e-02
5.6719196e-01
2.4688940e-01
4.9122977e-01
1.6740665e-01
5.3970027e-01
3.9504153e-01
3.7260345e-01
5.6433058e-01
3.5018799e-01
4.1745698e-01
1.1034008e-01
2.2525993e-01
5.1285923e-01
2.6527536e-01
4.8779628e-01
3.2784024e-01
4.3980470e-01
5.3708488e-01
1.8571010e-01
5.8778524e-01
0.0000000e+00
3.0560526e-01
4.6203971e-01
5.8763731e-01
1.8152785e-02
3.6296427e-02
5.8719337e-01
1.4677422e-01
5.6033272e-01
5.4421797e-02
5.8645386e-01
2.0392007e-01
5.3419912e-01
3.9091584e-01
7.2519757e-02
5.8541900e-01
2.8352779e-01
4.8411718e-01
3.4609619e-01
4.3573549e-01
9.0581208e-02
5.8408940e-01
2.2202733e-01
5.3104430e-01
5.8246565e-01
1.0859705e-01
2.6165229e-01
5.0599265e-01
1.8291277e-01
5.5520636e-01
4.8019427e-01
3.0163741e-01
1.2655821e-01
5.8054870e-01
0.0000000e+00
6.0579002e-01
3.8659337e-01
4.0903142e-01
3.5695579e-02
3.6417791e-01
4.3144691e-01
2.4002282e-01
5.2762210e-01
6.0518008e-01
1.4445563e-01
5.7833934e-01
3.4183016e-01
4.5379463e-01
7.1319275e-02
6.0335135e-01
4.7602960e-01
3.1959519e-01
5.7583880e-01
1.6228034e-01
5.2393425e-01
2.5789744e-01
5.4896200e-01
2.1868294e-01
1.0679934e-01
6.0030752e-01
4.9810708e-01
2.9751769e-01
1.8002331e-01
3.8207620e-01
4.2694104e-01
5.7304829e-01
6.2348980e-01
3.3739200e-01
0.0000000e+00
4.7162524e-01
1.7542796e-02
5.1998258e-01
6.2333286e-01
2.7564222e-01
3.5076756e-02
6.2286198e-01
5.9605479e-01
1.9767565e-01
5.6996924e-01
1.4206433e-01
6.2207752e-01
5.2593056e-02
7.0082873e-02
6.2097985e-01
3.9978215e-01
4.2222020e-01
5.4161203e-01
8.7537400e-02
6.1956948e-01
2.5401273e-01
5.6660318e-01
2.1522844e-01
3.7736669e-01
4.4463569e-01
5.1576906e-01
2.9324815e-01
1.0494785e-01
6.1784708e-01
3.5501894e-01
4.6698341e-01
1.7704321e-01
5.9060168e-01
1.2230546e-01
3.3278397e-01
6.1581367e-01
4.8921838e-01
2.3267287e-01
5.6295186e-01
0.0000000e+00
6.4087564e-01
1.3960148e-01
6.1347008e-01
3.1070647e-01
5.1129586e-01
3.4440272e-02
6.4023030e-01
4.1728675e-01
4.6210641e-01
3.7246713e-01
6.3829565e-01
6.8811186e-02
5.5901706e-01
2.5000012e-01
6.1081767e-01
1.5682721e-01
2.8883100e-01
5.8395916e-01
2.1166557e-01
5.3317136e-01
1.0304353e-01
6.3507557e-01
1.7397396e-01
3.2800832e-01
5.0656515e-01
6.0785764e-01
5.5480081e-01
2.6720151e-01
4.3458128e-01
4.1214323e-01
4.5699674e-01
3.8972777e-01
1.9103314e-01
6.0459161e-01
0.0000000e+00
6.5793872e-01
6.5777308e-01
1.6897477e-02
3.6738002e-01
6.3057655e-01
1.3706835e-01
4.7934449e-01
6.5727621e-01
3.3786446e-02
6.5644842e-01
5.0658401e-02
2.4586165e-01
5.7614064e-01
3.4514505e-01
5.0157946e-01
6.5529007e-01
5.5030513e-01
6.7504846e-02
2.8426835e-01
2.0799610e-01
6.0102105e-01
6.5380180e-01
8.4317304e-02
3.2306755e-01
5.2365690e-01
1.0108730e-01
4.0679213e-01
6.5198421e-01
4.5165697e-01
6.2480760e-01
1.7081714e-01
2.2485435e-01
5.9714794e-01
6.4983845e-01
3.0119208e-01
5.4553241e-01
1.1780641e-01
4.9634117e-01
3.6210793e-01
6.4736539e-01
1.3446619e-01
6.7467052e-01
0.0000000e+00
3.3115607e-02
6.7399120e-01
2.4159935e-01
5.9297413e-01
5.6716186e-01
2.7956259e-01
6.6164523e-02
6.4456642e-01
6.1778039e-01
2.0422192e-01
4.4608977e-01
4.2365173e-01
6.7195451e-01
1.5105827e-01
3.1796411e-01
5.4048496e-01
4.0123624e-01
4.6850523e-01
4.9085295e-01
3.7888852e-01
1.6757427e-01
6.4144284e-01
9.9080190e-02
5.8850175e-01
2.5822273e-01
6.6856462e-01
3.5665351e-01
5.1308793e-01
1.8400592e-01
6.3799638e-01
3.3457604e-01
5.3516543e-01
4.4029793e-01
1.3179633e-01
6.6382837e-01
2.7471605e-01
6.9106263e-01
0.0000000e+00
5.8373296e-01
6.0950899e-01
2.3721543e-01
1.6218130e-02
6.9088870e-01
4.8511758e-01
6.9036680e-01
3.2428090e-02
3.9547828e-01
5.5704087e-01
3.1270054e-01
4.8621725e-02
6.8949729e-01
6.3422853e-01
2.0034489e-01
6.4790875e-02
6.8828064e-01
8.0927409e-02
6.8671739e-01
5.2957636e-01
3.5101950e-01
1.6424705e-01
2.9107109e-01
6.5775520e-01
5.7867032e-01
9.7023182e-02
6.8480837e-01
6.3014144e-01
2.1658300e-01
4.3428442e-01
4.5672250e-01
1.1307011e-01
4.1186896e-01
4.7913796e-01
6.8255454e-01
3.8952124e-01
5.0148565e-01
6.0001022e-01
2.6973122e-01
1.2906009e-01
6.2573695e-01
2.3271203e-01
6.7995697e-01
3.0727953e-01
5.7331628e-01
5.2372068e-01
7.0710677e-01
0.0000000e+00
3.6728624e-01
3.1724248e-02
7.0639479e-01
1.9636700e-01
6.5035743e-01
6.7701709e-01
1.4498511e-01
5.4579812e-01
3.4520876e-01
7.0426017e-01
6.3384615e-02
6.2101752e-01
2.4872391e-01
4.7291702e-01
4.2805222e-01
6.7373627e-01
1.6083710e-01
3.2333326e-01
7.0070732e-01
9.4917327e-02
5.6767362e-01
3.8336802e-01
5.1760125e-01
1.7660812e-01
6.7011625e-01
6.1598527e-01
2.6461053e-01
5.8930308e-01
6.4164990e-01
3.0170381e-01
2.2809148e-01
6.9574332e-01
1.2625889e-01
7.2279489e-01
0.0000000e+00
1.5506120e-02
7.2261292e-01
7.2206706e-01
1.9229020e-01
3.1004433e-02
3.3922416e-01
6.6615874e-01
5.6174505e-01
4.6645802e-01
4.4401997e-01
4.2160448e-01
4.6487134e-02
4.8887348e-01
7.2115767e-01
6.1946426e-02
7.1988511e-01
2.8036392e-01
6.1064291e-01
5.1122123e-01
3.9925677e-01
7.1825010e-01
7.7374533e-02
3.7702176e-01
2.0787548e-01
5.3345621e-01
6.8937820e-01
1.5734619e-01
6.6186589e-01
7.1625340e-01
9.2763670e-02
5.5553365e-01
3.5494429e-01
6.3165021e-01
7.1389610e-01
1.0810611e-01
2.5935662e-01
6.0499305e-01
2.9597613e-01
4.5976409e-01
6.5723968e-01
2.2335605e-01
1.2339409e-01
7.1117926e-01
5.0458372e-01
4.1494444e-01
5.7740915e-01
3.3306879e-01
7.3811901e-01
0.0000000e+00
6.8162471e-01
1.8811661e-01
3.0269004e-02
7.3737580e-01
7.0810437e-01
1.3861996e-01
2.3872419e-01
6.5228260e-01
3.7048566e-01
5.4904246e-01
6.0477052e-02
7.3514754e-01
5.9903860e-01
3.1143934e-01
7.0467287e-01
1.5377602e-01
9.0563305e-02
4.7527677e-01
4.5283869e-01
7.3143888e-01
4.3042323e-01
4.9769223e-01
2.5397211e-01
6.4699703e-01
2.9009947e-01
6.2037843e-01
1.6885467e-01
5.2003992e-01
7.0088667e-01
4.0807551e-01
6.7249858e-01
2.1850818e-01
3.2674569e-01
5.9278244e-01
3.8584051e-01
5.4227495e-01
1.2046718e-01
7.2625715e-01
6.9674742e-01
1.8384828e-01
7.5307149e-01
0.0000000e+00
3.6376303e-01
5.6435239e-01
1.4762884e-02
6.4138573e-01
2.6909214e-01
7.5288188e-01
2.9518334e-02
7.5231314e-01
7.5136566e-01
4.4258922e-02
5.8977220e-02
7.5003982e-01
4.9055007e-01
4.4568527e-01
5.8622783e-01
1.9874932e-01
6.9225740e-01
3.4188753e-01
7.1961284e-01
1.5012845e-01
7.3665828e-02
7.4833632e-01
4.0100104e-01
5.3523427e-01
7.4625599e-01
8.8317335e-02
2.8407669e-01
6.3545138e-01
2.4845973e-01
6.6201812e-01
6.0785729e-01
3.2025808e-01
6.8741882e-01
2.1355027e-01
7.4379992e-01
1.0292438e-01
5.7937807e-01
3.5685721e-01
1.1747959e-01
7.4096930e-01
1.7948738e-01
7.1151936e-01
4.6072289e-01
4.8316094e-01
2.9891819e-01
5.0557643e-01
4.3830743e-01
6.2919718e-01
6.8223411e-01
2.2824372e-01
0.0000000e+00
7.6764476e-01
7.3776561e-01
1.3197567e-01
4.1595972e-01
7.6687181e-01
2.8752802e-02
5.2792412e-01
7.6455444e-01
5.7447698e-02
5.5015910e-01
3.9372471e-01
1.4640526e-01
7.3419040e-01
6.5020442e-01
2.7791089e-01
2.4282221e-01
6.7670584e-01
5.7223660e-01
3.7164724e-01
3.1360918e-01
6.2262607e-01
7.6069736e-01
8.6026907e-02
2.0848484e-01
7.0199293e-01
1.6076116e-01
7.3024553e-01
4.7552851e-01
3.4977174e-01
5.9411204e-01
5.2034813e-01
4.3070889e-01
6.7083687e-01
2.5727847e-01
1.1443286e-01
7.5530839e-01
1.7503610e-01
7.2593296e-01
3.2814226e-01
6.1574149e-01
5.6480688e-01
3.8625008e-01
0.0000000e+00
7.8183150e-01
1.3989918e-02
7.8163469e-01
7.8104419e-01
2.7972789e-02
4.1941579e-02
7.8006053e-01
7.2125483e-01
1.8922290e-01
7.7868402e-01
5.5889245e-02
2.7160513e-01
6.6463006e-01
1.4260837e-01
7.4839830e-01
2.3706245e-01
6.9105279e-01
6.9808774e-02
4.6765667e-01
3.0680239e-01
6.3708133e-01
4.9009472e-01
7.7691549e-01
4.4524121e-01
5.1251018e-01
8.3693147e-02
7.7475572e-01
5.3485793e-01
4.2289346e-01
2.0331442e-01
7.1621352e-01
6.0854685e-01
3.4251010e-01
7.7220583e-01
9.7535387e-02
5.5709291e-01
4.0065849e-01
6.5808862e-01
2.8579509e-01
7.6926708e-01
1.1132850e-01
3.7858102e-01
7.3998106e-01
5.7917035e-01
1.7049669e-01
2.1730359e-01
7.1081167e-01
7.9562455e-01
0.0000000e+00
7.6594108e-01
1.2506558e-01
4.5954931e-01
5.0441414e-01
7.9482341e-01
2.7178695e-02
6.0104579e-01
3.5670552e-01
2.6516265e-01
6.7872101e-01
2.9984111e-01
6.5121579e-01
7.9242158e-01
5.4302655e-02
5.4909831e-01
4.1486511e-01
7.6222932e-01
1.3873966e-01
7.0505178e-01
2.3118332e-01
3.3507603e-01
6.2267524e-01
8.1317261e-02
7.8842396e-01
1.9804165e-01
7.3007357e-01
7.5813383e-01
1.5234390e-01
3.7072125e-01
5.9324211e-01
2.4494664e-01
6.9893700e-01
6.4401507e-01
3.1373617e-01
4.9606410e-01
4.7362605e-01
7.5365651e-01
1.6587143e-01
1.0816810e-01
7.8283852e-01
4.5121059e-01
5.1847959e-01
5.4082727e-01
4.2886287e-01
8.0901700e-01
0.0000000e+00
5.6306225e-01
4.0662786e-01
8.0881333e-01
1.3188777e-02
8.0820233e-01
2.6370913e-02
6.9247019e-01
2.5858662e-01
2.9272887e-01
6.6502237e-01
1.7931543e-01
7.4879974e-01
8.0718446e-01
3.9539769e-02
2.2518778e-01
7.1869582e-01
8.0576009e-01
5.2688718e-02
3.2747322e-01
6.3649005e-01
7.7567661e-01
1.3480110e-01
3.8455039e-01
5.8513969e-01
8.0393004e-01
6.5811135e-02
1.9266914e-01
7.4356592e-01
7.8900412e-02
8.0169517e-01
4.8746428e-01
6.0701519e-01
3.6267489e-01
2.7209643e-01
6.8565476e-01
4.4264463e-01
5.3228390e-01
7.9905665e-01
9.1949970e-02
7.3795772e-01
7.6695251e-01
1.6116264e-01
6.2864459e-01
3.4104541e-01
2.0592584e-01
7.9601574e-01
1.0495321e-01
3.9818585e-01
5.7674265e-01
6.7849404e-01
2.8546917e-01
7.9257405e-01
1.1790363e-01
7.0587075e-01
2.5188041e-01
0.0000000e+00
8.2200205e-01
3.1970555e-01
6.4998442e-01
2.5549853e-02
8.2117438e-01
7.3197788e-01
2.1907884e-01
5.0105709e-01
4.7861901e-01
7.8873318e-01
1.3079466e-01
4.5620355e-01
5.2347255e-01
5.1048253e-02
8.1869292e-01
6.2048256e-01
3.5444584e-01
4.3385583e-01
5.4582024e-01
1.8719962e-01
7.5668395e-01
7.8449529e-01
1.4361985e-01
2.9869825e-01
4.1162083e-01
6.7099172e-01
8.1456274e-01
7.6443851e-02
5.6805521e-01
7.2562957e-01
2.3212154e-01
3.8954335e-01
5.9013265e-01
7.7986228e-01
1.5637270e-01
8.0879217e-01
1.0168549e-01
3.6766785e-01
6.9162410e-01
2.7806580e-01
6.1200815e-01
5.1439756e-01
2.4504735e-01
7.1891582e-01
4.6953273e-01
3.1177685e-01
6.6315150e-01
7.7483666e-01
1.6904683e-01
8.3457327e-01
0.0000000e+00
7.4489146e-01
2.1285960e-01
1.2361076e-02
8.3436316e-01
2.4715926e-02
8.3373284e-01
4.2484853e-01
5.5908173e-01
6.3363755e-01
3.4603837e-01
3.7058335e-02
8.3268285e-01
8.0139273e-01
1.2672237e-01
4.9382079e-02
8.3121347e-01
7.6942086e-01
1.8163583e-01
2.5784978e-01
7.1184009e-01
8.2932562e-01
6.1680961e-02
8.2702011e-01
3.8070470e-01
7.3948786e-02
6.0322547e-01
3.2469851e-01
6.5497738e-01
8.2429826e-01
5.0506359e-01
8.6179376e-02
4.8262554e-01
7.6361763e-01
1.9413339e-01
5.2747905e-01
4.6021008e-01
7.9237944e-01
1.5150402e-01
4.3786234e-01
5.4982674e-01
8.2116127e-01
7.0440590e-01
9.8366566e-02
2.7052239e-01
7.3159891e-01
2.3809092e-01
6.7598468e-01
3.0369121e-01
4.1562733e-01
5.7206172e-01
8.1761086e-01
1.1050423e-01
7.5742990e-01
6.4647347e-01
3.3745664e-01
2.0653316e-01
8.4672421e-01
0.0000000e+00
3.9354986e-01
5.9413916e-01
2.3869557e-02
8.4587163e-01
8.1364870e-01
1.2258625e-01
8.4331554e-01
4.7691043e-02
2.8305876e-01
6.9661707e-01
6.1601460e-01
1.7598060e-01
3.7167436e-01
7.8177041e-01
4.9547526e-01
2.1882898e-01
7.5086081e-01
5.4029489e-01
4.5065564e-01
1.3460656e-01
8.0927694e-01
7.1416490e-02
8.3906114e-01
3.5004488e-01
6.3764405e-01
4.0619683e-01
1.4655906e-01
8.0449754e-01
5.8475363e-01
7.1683300e-01
2.6284274e-01
6.8847740e-01
2.9545259e-01
7.4391359e-01
2.3101458e-01
9.4998114e-02
8.3311695e-01
3.2870501e-01
6.5898389e-01
7.6958698e-01
7.9931319e-01
2.0010275e-01
1.5843779e-01
4.8563752e-01
5.0807554e-01
0.0000000e+00
8.5844880e-01
8.5823268e-01
4.6322206e-01
5.3049099e-01
1.1508482e-02
8.5758436e-01
3.6245686e-01
6.2849349e-01
2.3011167e-02
8.5650426e-01
7.3659188e-01
3.4502268e-02
8.2549500e-01
5.5283874e-01
4.4087431e-01
2.4308388e-01
1.1838842e-01
3.0769768e-01
6.7999113e-01
4.5975991e-02
8.5499287e-01
1.7023674e-01
7.9372627e-01
4.1863933e-01
5.7507366e-01
8.5305101e-01
5.7426572e-02
8.5067958e-01
6.8848230e-02
3.9656183e-01
5.9715110e-01
7.8773975e-01
1.8194996e-01
7.2889918e-01
2.5503075e-01
8.4787983e-01
7.0062351e-01
2.8706527e-01
8.0235228e-02
1.4154032e-01
8.1621063e-01
2.2382194e-01
7.5585377e-01
3.7468633e-01
6.1902660e-01
3.1978783e-01
6.7116243e-01
8.4465307e-01
9.1581814e-02
5.2041996e-01
4.7555518e-01
7.8135651e-01
1.9357157e-01
5.6510413e-01
4.3087098e-01
1.0288230e-01
8.4100109e-01
3.5305685e-01
6.4065599e-01
7.2083950e-01
2.6684925e-01
0.0000000e+00
8.6974114e-01
8.6886537e-01
2.2141190e-02
8.3692563e-01
1.1413097e-01
1.6440716e-01
8.0528253e-01
2.0509571e-01
6.6199583e-01
3.3171698e-01
7.7457994e-01
4.4237792e-02
8.6623979e-01
6.0924786e-01
3.8672712e-01
8.3242875e-01
1.2532218e-01
6.6245310e-02
5.1008695e-01
4.8764890e-01
8.6186975e-01
2.7853334e-01
7.1241683e-01
4.6523345e-01
2.4709037e-01
7.4059832e-01
5.3250241e-01
3.1070966e-01
6.8300307e-01
5.5485010e-01
4.4288570e-01
8.2751268e-01
7.6741326e-01
2.1651657e-01
1.3645028e-01
5.7708502e-01
4.2065069e-01
8.5576397e-01
8.8119410e-02
3.4347907e-01
6.5249580e-01
1.8694292e-01
7.9273266e-01
8.2217997e-01
5.9916246e-01
3.9857322e-01
1.4750968e-01
7.0363545e-01
2.9007721e-01
7.5986022e-01
2.2782843e-01
0.0000000e+00
8.8059551e-01
6.2103790e-01
3.7669769e-01
1.0632710e-02
8.8037384e-01
2.1260066e-02
8.7970877e-01
8.4793484e-01
1.0981606e-01
8.1643325e-01
4.9949703e-01
1.5849480e-01
8.7860084e-01
3.1876717e-02
5.4431665e-01
4.5467737e-01
4.2477317e-02
8.7705046e-01
3.5506821e-01
5.3056527e-02
6.4266735e-01
8.7505847e-01
2.6986119e-01
7.2385144e-01