# vtk DataFile Version 4.0
vtk output
ASCII
DATASET UNSTRUCTURED_GRID
POINTS 11236 float
0.0000000e+00 0.0000000e+00 0.0000000e+00 
9.5238099e-03 0.0000000e+00 0.0000000e+00 
0.0000000e+00 9.5238099e-03 0.0000000e+00 
9.5238099e-03 9.5238099e-03 0.0000000e+00 
1.9047620e-02 0.0000000e+00 0.0000000e+00 
0.0000000e+00 1.9047620e-02 0.0000000e+00 
1.9047620e-02 9.5238099e-03 0.0000000e+00 
9.5238099e-03 1.9047620e-02 0.0000000e+00 
1.9047620e-02 1.9047620e-02 0.0000000e+00 
2.8571429e-02 0.0000000e+00 0.0000000e+00 
0.0000000e+00 2.8571429e-02 0.0000000e+00 
2.8571429e-02 9.5238099e-03 0.0000000e+00 
9.5238099e-03 2.8571429e-02 0.0000000e+00 
1.9047620e-02 2.8571429e-02 0.0000000e+00 
2.8571429e-02 1.9047620e-02 0.0000000e+00 
3.8095240e-02 0.0000000e+00 0.0000000e+00 
0.0000000e+00 3.8095240e-02 0.0000000e+00 
3.8095240e-02 9.5238099e-03 0.0000000e+00 
9.5238099e-03 3.8095240e-02 0.0000000e+00 
2.8571429e-02 2.8571429e-02 0.0000000e+00 
3.8095240e-02 1.9047620e-02 0.0000000e+00 
1.9047620e-02 3.8095240e-02 0.0000000e+00 
0.0000000e+00 4.7619049e-02 0.0000000e+00 
4.7619049e-02 0.0000000e+00 0.0000000e+00 
3.8095240e-02 2.8571429e-02 0.0000000e+00 
2.8571429e-02 3.8095240e-02 0.0000000e+00 
9.5238099e-03 4.7619049e-02 0.0000000e+00 
4.7619049e-02 9.5238099e-03 0.0000000e+00 
4.7619049e-02 1.9047620e-02 0.0000000e+00 
1.9047620e-02 4.7619049e-02 0.0000000e+00 
3.8095240e-02 3.8095240e-02 0.0000000e+00 
2.8571429e-02 4.7619049e-02 0.0000000e+00 
4.7619049e-02 2.8571429e-02 0.0000000e+00 
5.7142857e-02 0.0000000e+00 0.0000000e+00 
0.0000000e+00 5.7142857e-02 0.0000000e+00 
5.7142857e-02 9.5238099e-03 0.0000000e+00 
9.5238099e-03 5.7142857e-02 0.0000000e+00 
5.7142857e-02 1.9047620e-02 0.0000000e+00 
1.9047620e-02 5.7142857e-02 0.0000000e+00 
3.8095240e-02 4.7619049e-02 0.0000000e+00 
4.7619049e-02 3.8095240e-02 0.0000000e+00 
5.7142857e-02 2.8571429e-02 0.0000000e+00 
2.8571429e-02 5.7142857e-02 0.0000000e+00 
0.0000000e+00 6.6666670e-02 0.0000000e+00 
6.6666670e-02 0.0000000e+00 0.0000000e+00 
4.7619049e-02 4.7619049e-02 0.0000000e+00 
9.5238099e-03 6.6666670e-02 0.0000000e+00 
6.6666670e-02 9.5238099e-03 0.0000000e+00 
5.7142857e-02 3.8095240e-02 0.0000000e+00 
3.8095240e-02 5.7142857e-02 0.0000000e+00 
6.6666670e-02 1.9047620e-02 0.0000000e+00 
1.9047620e-02 6.6666670e-02 0.0000000e+00 
2.8571429e-02 6.6666670e-02 0.0000000e+00 
6.6666670e-02 2.8571429e-02 0.0000000e+00 
5.7142857e-02 4.7619049e-02 0.0000000e+00 
4.7619049e-02 5.7142857e-02 0.0000000e+00 
7.6190479e-02 0.0000000e+00 0.0000000e+00 
0.0000000e+00 7.6190479e-02 0.0000000e+00 
6.6666670e-02 3.8095240e-02 0.0000000e+00 
3.8095240e-02 6.6666670e-02 0.0000000e+00 
7.6190479e-02 9.5238099e-03 0.0000000e+00 
9.5238099e-03 7.6190479e-02 0.0000000e+00 
1.9047620e-02 7.6190479e-02 0.0000000e+00 
7.6190479e-02 1.9047620e-02 0.0000000e+00 
5.7142857e-02 5.7142857e-02 0.0000000e+00 
2.8571429e-02 7.6190479e-02 0.0000000e+00 
7.6190479e-02 2.8571429e-02 0.0000000e+00 
6.6666670e-02 4.7619049e-02 0.0000000e+00 
4.7619049e-02 6.6666670e-02 0.0000000e+00 
3.8095240e-02 7.6190479e-02 0.0000000e+00 
7.6190479e-02 3.8095240e-02 0.0000000e+00 
0.0000000e+00 8.5714288e-02 0.0000000e+00 
8.5714288e-02 0.0000000e+00 0.0000000e+00 
8.5714288e-02 9.5238099e-03 0.0000000e+00 
9.5238099e-03 8.5714288e-02 0.0000000e+00 
5.7142857e-02 6.6666670e-02 0.0000000e+00 
1.9047620e-02 8.5714288e-02 0.0000000e+00 
6.6666670e-02 5.7142857e-02 0.0000000e+00 
8.5714288e-02 1.9047620e-02 0.0000000e+00 
4.7619049e-02 7.6190479e-02 0.0000000e+00 
7.6190479e-02 4.7619049e-02 0.0000000e+00 
8.5714288e-02 2.8571429e-02 0.0000000e+00 
2.8571429e-02 8.5714288e-02 0.0000000e+00 
8.5714288e-02 3.8095240e-02 0.0000000e+00 
3.8095240e-02 8.5714288e-02 0.0000000e+00 
6.6666670e-02 6.6666670e-02 0.0000000e+00 
9.5238097e-02 0.0000000e+00 0.0000000e+00 
0.0000000e+00 9.5238097e-02 0.0000000e+00 
5.7142857e-02 7.6190479e-02 0.0000000e+00 
7.6190479e-02 5.7142857e-02 0.0000000e+00 
9.5238099e-03 9.5238097e-02 0.0000000e+00 
9.5238097e-02 9.5238099e-03 0.0000000e+00 
9.5238097e-02 1.9047620e-02 0.0000000e+00 
1.9047620e-02 9.5238097e-02 0.0000000e+00 
8.5714288e-02 4.7619049e-02 0.0000000e+00 
4.7619049e-02 8.5714288e-02 0.0000000e+00 
2.8571429e-02 9.5238097e-02 0.0000000e+00 
9.5238097e-02 2.8571429e-02 0.0000000e+00 
7.6190479e-02 6.6666670e-02 0.0000000e+00 
6.6666670e-02 7.6190479e-02 0.0000000e+00 
3.8095240e-02 9.5238097e-02 0.0000000e+00 
9.5238097e-02 3.8095240e-02 0.0000000e+00 
5.7142857e-02 8.5714288e-02 0.0000000e+00 
8.5714288e-02 5.7142857e-02 0.0000000e+00 
0.0000000e+00 1.0476191e-01 0.0000000e+00 
1.0476191e-01 0.0000000e+00 0.0000000e+00 
9.5238099e-03 1.0476191e-01 0.0000000e+00 
1.0476191e-01 9.5238099e-03 0.0000000e+00 
9.5238097e-02 4.7619049e-02 0.0000000e+00 
4.7619049e-02 9.5238097e-02 0.0000000e+00 
1.9047620e-02 1.0476191e-01 0.0000000e+00 
1.0476191e-01 1.9047620e-02 0.0000000e+00 
7.6190479e-02 7.6190479e-02 0.0000000e+00 
2.8571429e-02 1.0476191e-01 0.0000000e+00 
6.6666670e-02 8.5714288e-02 0.0000000e+00 
8.5714288e-02 6.6666670e-02 0.0000000e+00 
1.0476191e-01 2.8571429e-02 0.0000000e+00 
5.7142857e-02 9.5238097e-02 0.0000000e+00 
9.5238097e-02 5.7142857e-02 0.0000000e+00 
1.0476191e-01 3.8095240e-02 0.0000000e+00 
3.8095240e-02 1.0476191e-01 0.0000000e+00 
1.1428571e-01 0.0000000e+00 0.0000000e+00 
0.0000000e+00 1.1428571e-01 0.0000000e+00 
1.1428571e-01 9.5238099e-03 0.0000000e+00 
9.5238099e-03 1.1428571e-01 0.0000000e+00 
7.6190479e-02 8.5714288e-02 0.0000000e+00 
8.5714288e-02 7.6190479e-02 0.0000000e+00 
4.7619049e-02 1.0476191e-01 0.0000000e+00 
1.0476191e-01 4.7619049e-02 0.0000000e+00 
1.9047620e-02 1.1428571e-01 0.0000000e+00 
1.1428571e-01 1.9047620e-02 0.0000000e+00 
6.6666670e-02 9.5238097e-02 0.0000000e+00 
9.5238097e-02 6.6666670e-02 0.0000000e+00 
1.1428571e-01 2.8571429e-02 0.0000000e+00 
2.8571429e-02 1.1428571e-01 0.0000000e+00 
5.7142857e-02 1.0476191e-01 0.0000000e+00 
1.0476191e-01 5.7142857e-02 0.0000000e+00 
1.1428571e-01 3.8095240e-02 0.0000000e+00 
3.8095240e-02 1.1428571e-01 0.0000000e+00 
8.5714288e-02 8.5714288e-02 0.0000000e+00 
7.6190479e-02 9.5238097e-02 0.0000000e+00 
9.5238097e-02 7.6190479e-02 0.0000000e+00 
1.1428571e-01 4.7619049e-02 0.0000000e+00 
4.7619049e-02 1.1428571e-01 0.0000000e+00 
0.0000000e+00 1.2380952e-01 0.0000000e+00 
1.2380952e-01 0.0000000e+00 0.0000000e+00 
6.6666670e-02 1.0476191e-01 0.0000000e+00 
1.0476191e-01 6.6666670e-02 0.0000000e+00 
1.2380952e-01 9.5238099e-03 0.0000000e+00 
9.5238099e-03 1.2380952e-01 0.0000000e+00 
1.2380952e-01 1.9047620e-02 0.0000000e+00 
1.9047620e-02 1.2380952e-01 0.0000000e+00 
1.2380952e-01 2.8571429e-02 0.0000000e+00 
2.8571429e-02 1.2380952e-01 0.0000000e+00 
5.7142857e-02 1.1428571e-01 0.0000000e+00 
1.1428571e-01 5.7142857e-02 0.0000000e+00 
9.5238097e-02 8.5714288e-02 0.0000000e+00 
8.5714288e-02 9.5238097e-02 0.0000000e+00 
7.6190479e-02 1.0476191e-01 0.0000000e+00 
1.0476191e-01 7.6190479e-02 0.0000000e+00 
3.8095240e-02 1.2380952e-01 0.0000000e+00 
1.2380952e-01 3.8095240e-02 0.0000000e+00 
1.1428571e-01 6.6666670e-02 0.0000000e+00 
6.6666670e-02 1.1428571e-01 0.0000000e+00 
1.2380952e-01 4.7619049e-02 0.0000000e+00 
4.7619049e-02 1.2380952e-01 0.0000000e+00 
1.3333334e-01 0.0000000e+00 0.0000000e+00 
0.0000000e+00 1.3333334e-01 0.0000000e+00 
9.5238099e-03 1.3333334e-01 0.0000000e+00 
1.3333334e-01 9.5238099e-03 0.0000000e+00 
9.5238097e-02 9.5238097e-02 0.0000000e+00 
1.3333334e-01 1.9047620e-02 0.0000000e+00 
1.9047620e-02 1.3333334e-01 0.0000000e+00 
1.0476191e-01 8.5714288e-02 0.0000000e+00 
8.5714288e-02 1.0476191e-01 0.0000000e+00 
1.3333334e-01 2.8571429e-02 0.0000000e+00 
2.8571429e-02 1.3333334e-01 0.0000000e+00 
5.7142857e-02 1.2380952e-01 0.0000000e+00 
1.2380952e-01 5.7142857e-02 0.0000000e+00 
1.1428571e-01 7.6190479e-02 0.0000000e+00 
7.6190479e-02 1.1428571e-01 0.0000000e+00 
1.3333334e-01 3.8095240e-02 0.0000000e+00 
3.8095240e-02 1.3333334e-01 0.0000000e+00 
6.6666670e-02 1.2380952e-01 0.0000000e+00 
1.2380952e-01 6.6666670e-02 0.0000000e+00 
1.3333334e-01 4.7619049e-02 0.0000000e+00 
4.7619049e-02 1.3333334e-01 0.0000000e+00 
1.0476191e-01 9.5238097e-02 0.0000000e+00 
9.5238097e-02 1.0476191e-01 0.0000000e+00 
1.1428571e-01 8.5714288e-02 0.0000000e+00 
0.0000000e+00 1.4285715e-01 0.0000000e+00 
1.4285715e-01 0.0000000e+00 0.0000000e+00 
8.5714288e-02 1.1428571e-01 0.0000000e+00 
1.4285715e-01 9.5238099e-03 0.0000000e+00 
9.5238099e-03 1.4285715e-01 0.0000000e+00 
1.9047620e-02 1.4285715e-01 0.0000000e+00 
1.4285715e-01 1.9047620e-02 0.0000000e+00 
5.7142857e-02 1.3333334e-01 0.0000000e+00 
1.3333334e-01 5.7142857e-02 0.0000000e+00 
1.2380952e-01 7.6190479e-02 0.0000000e+00 
7.6190479e-02 1.2380952e-01 0.0000000e+00 
2.8571429e-02 1.4285715e-01 0.0000000e+00 
1.4285715e-01 2.8571429e-02 0.0000000e+00 
1.4285715e-01 3.8095240e-02 0.0000000e+00 
3.8095240e-02 1.4285715e-01 0.0000000e+00 
1.0476191e-01 1.0476191e-01 0.0000000e+00 
1.1428571e-01 9.5238097e-02 0.0000000e+00 
9.5238097e-02 1.1428571e-01 0.0000000e+00 
1.3333334e-01 6.6666670e-02 0.0000000e+00 
6.6666670e-02 1.3333334e-01 0.0000000e+00 
4.7619049e-02 1.4285715e-01 0.0000000e+00 
1.4285715e-01 4.7619049e-02 0.0000000e+00 
8.5714288e-02 1.2380952e-01 0.0000000e+00 
1.2380952e-01 8.5714288e-02 0.0000000e+00 
1.5238096e-01 0.0000000e+00 0.0000000e+00 
0.0000000e+00 1.5238096e-01 0.0000000e+00 
1.5238096e-01 9.5238099e-03 0.0000000e+00 
9.5238099e-03 1.5238096e-01 0.0000000e+00 
7.6190479e-02 1.3333334e-01 0.0000000e+00 
1.3333334e-01 7.6190479e-02 0.0000000e+00 
1.5238096e-01 1.9047620e-02 0.0000000e+00 
1.9047620e-02 1.5238096e-01 0.0000000e+00 
1.4285715e-01 5.7142857e-02 0.0000000e+00 
5.7142857e-02 1.4285715e-01 0.0000000e+00 
1.1428571e-01 1.0476191e-01 0.0000000e+00 
1.0476191e-01 1.1428571e-01 0.0000000e+00 
1.5238096e-01 2.8571429e-02 0.0000000e+00 
2.8571429e-02 1.5238096e-01 0.0000000e+00 
9.5238097e-02 1.2380952e-01 0.0000000e+00 
1.2380952e-01 9.5238097e-02 0.0000000e+00 
[...]
POINT_DATA 11236
FIELD FieldData 1
TEMPERATURE 1 11236  float
0.0000000e+00
2.9915467e-02
0.0000000e+00
2.9901300e-02
5.9804153e-02
0.0000000e+00
5.9775844e-02
2.9860383e-02
5.9694055e-02
8.9639306e-02
0.0000000e+00
8.9596890e-02
2.9792750e-02
5.9558865e-02
8.9474320e-02
1.1939423e-01
0.0000000e+00
1.1933775e-01
2.9698465e-02
8.9271694e-02
1.1917451e-01
5.9370387e-02
0.0000000e+00
1.4904226e-01
1.1890465e-01
8.8989206e-02
2.9577607e-02
1.4897178e-01
1.4876804e-01
5.9128791e-02
1.1852841e-01
8.8627100e-02
1.4843120e-01
1.7855689e-01
0.0000000e+00
1.7847249e-01
2.9430283e-02
1.7822842e-01
5.8834285e-02
1.1804612e-01
1.4796156e-01
1.7782491e-01
8.8185683e-02
0.0000000e+00
2.0791169e-01
1.4735954e-01
2.9256625e-02
2.0781344e-01
1.7726229e-01
1.1745821e-01
2.0752929e-01
5.8487136e-02
8.7665364e-02
2.0705947e-01
1.7654109e-01
1.4662565e-01
2.3708038e-01
0.0000000e+00
2.0640440e-01
1.1676519e-01
2.3696838e-01
2.9056786e-02
5.8087647e-02
2.3664440e-01
1.7566192e-01
8.7066598e-02
2.3610872e-01
2.0556466e-01
1.4576058e-01
1.1596769e-01
2.3536178e-01
0.0000000e+00
2.6603684e-01
2.6591122e-01
2.8830944e-02
1.7462556e-01
5.7636175e-02
2.0454100e-01
2.6554772e-01
1.4476506e-01
2.3440428e-01
2.6494664e-01
8.6389907e-02
2.6410854e-01
1.1506641e-01
2.0333430e-01
2.9475516e-01
0.0000000e+00
1.7343295e-01
2.3323703e-01
2.8579298e-02
2.9461604e-01
2.9421332e-01
5.7133120e-02
2.6303411e-01
1.4364000e-01
8.5635908e-02
2.9354742e-01
2.3186110e-01
2.0194565e-01
1.1406215e-01
2.9261890e-01
1.7208512e-01
2.6172435e-01
0.0000000e+00
3.2320964e-01
2.8302073e-02
3.2305714e-01
2.9142854e-01
1.4238639e-01
5.6578930e-02
3.2261562e-01
2.3027767e-01
8.4805258e-02
2.0037629e-01
2.6018041e-01
3.2188547e-01
1.7058328e-01
2.8997746e-01
3.2086736e-01
1.1295579e-01
3.5137483e-01
0.0000000e+00
3.5120907e-01
2.7999517e-02
2.2848818e-01
2.5840366e-01
1.4100534e-01
3.1956217e-01
5.5974096e-02
3.5072914e-01
1.9862759e-01
2.8826690e-01
3.4993541e-01
8.3898701e-02
1.6892877e-01
3.1797102e-01
3.4882861e-01
1.1174834e-01
2.5639564e-01
2.2649421e-01
2.8629839e-01
3.4740975e-01
1.3949807e-01
0.0000000e+00
3.7922546e-01
1.9670112e-01
3.1609541e-01
3.7904662e-01
2.7671894e-02
3.7852868e-01
5.5319156e-02
3.7767214e-01
8.2917042e-02
1.6712306e-01
3.4568003e-01
2.8407368e-01
2.5415820e-01
2.2429752e-01
3.1393692e-01
1.1044084e-01
3.7647769e-01
3.4364101e-01
1.9459860e-01
3.7494639e-01
1.3786593e-01
4.0673664e-01
0.0000000e+00
2.7319500e-02
4.0654489e-01
2.8159475e-01
4.0598944e-01
5.4614693e-02
3.1149751e-01
2.5169325e-01
4.0507078e-01
8.1861153e-02
1.6516776e-01
3.7307966e-01
3.4129453e-01
2.2190009e-01
4.0378976e-01
1.0903449e-01
1.9232190e-01
3.7087908e-01
4.0214744e-01
1.3611038e-01
3.0877936e-01
2.7886382e-01
3.3864263e-01
0.0000000e+00
4.3388373e-01
2.4900307e-01
4.3367925e-01
2.6942646e-02
5.3861335e-02
4.3308678e-01
1.6306460e-01
4.0014535e-01
3.6834666e-01
2.1930401e-01
8.0731973e-02
4.3210688e-01
4.3074039e-01
1.0753051e-01
3.0578485e-01
3.3568767e-01
2.7588329e-01
3.9778522e-01
1.8987301e-01
1.3423297e-01
4.2898855e-01
2.4608998e-01
3.6548465e-01
4.6064246e-01
0.0000000e+00
4.6042541e-01
2.6541667e-02
2.1651164e-01
3.9506915e-01
4.5979646e-01
5.3059746e-02
4.2685288e-01
1.6081545e-01
3.3243230e-01
3.0251667e-01
4.5875618e-01
7.9530507e-02
2.7265581e-01
3.6229557e-01
4.5730549e-01
1.0593025e-01
1.8725415e-01
4.2433530e-01
3.9199957e-01
2.4295661e-01
1.3223536e-01
4.5544565e-01
3.2887942e-01
4.2143804e-01
2.1352541e-01
0.0000000e+00
4.8698881e-01
3.5878226e-01
4.8675942e-01
2.6116921e-02
2.9897773e-01
1.5842229e-01
4.5317835e-01
4.8609456e-01
5.2210644e-02
2.6918426e-01
3.8857925e-01
4.8499483e-01
7.8257822e-02
4.5050558e-01
1.0423514e-01
4.8346123e-01
1.8446761e-01
4.1816369e-01
2.3960572e-01
3.2503214e-01
3.5494787e-01
1.3011934e-01
4.8149508e-01
3.8481116e-01
2.9517114e-01
2.1034801e-01
4.4742972e-01
5.1289928e-01
0.0000000e+00
4.1451517e-01
1.5588729e-01
5.1265770e-01
2.6547176e-01
4.7909817e-01
2.5668785e-02
5.1195753e-01
5.1314782e-02
7.6915048e-02
5.1079935e-01
4.4395354e-01
2.3604031e-01
4.7627261e-01
3.5079578e-01
1.8151590e-01
3.2089397e-01
3.8069868e-01
1.0244667e-01
5.0918424e-01
4.1049570e-01
2.9110032e-01
5.0711352e-01
1.2788679e-01
4.7302094e-01
2.0698224e-01
2.6152155e-01
4.4008008e-01
1.5321267e-01
5.0458914e-01
0.0000000e+00
5.3835064e-01
5.3809708e-01
2.5197657e-02
5.0372958e-02
3.7624550e-01
3.4632969e-01
5.3736222e-01
4.0610886e-01
3.1646851e-01
7.5503379e-02
2.3226354e-01
4.6934602e-01
5.3614664e-01
5.0161332e-01
1.7840162e-01
4.3581283e-01
2.8676888e-01
1.0056643e-01
5.3445143e-01
1.2553969e-01
5.3227806e-01
2.0343111e-01
4.9818873e-01
2.5733715e-01
4.6525112e-01
3.7145555e-01
3.4155357e-01
4.0135857e-01
1.5040082e-01
5.2962846e-01
5.6332004e-01
0.0000000e+00
3.1175971e-01
4.3115556e-01
2.4703957e-02
5.6305486e-01
5.6228590e-01
4.9386010e-02
2.2827877e-01
4.9431837e-01
7.4024081e-02
5.6101400e-01
1.7512755e-01
4.6073991e-01
2.8218064e-01
5.2650505e-01
5.5924016e-01
9.8596118e-02
3.6633310e-01
3.9624906e-01
4.9000573e-01
2.5292233e-01
5.5696607e-01
1.2308013e-01
4.2611247e-01
3.3647171e-01
1.9969779e-01
5.2291059e-01
4.5581642e-01
3.0677179e-01
5.5419368e-01
1.4745423e-01
5.8778524e-01
0.0000000e+00
5.1884824e-01
2.4188124e-02
5.8750856e-01
2.2408953e-01
4.8525462e-01
2.7733973e-01
5.8670628e-01
4.8354816e-02
1.7169660e-01
5.5092543e-01
3.9078486e-01
7.2478458e-02
5.8537912e-01
4.2068797e-01
3.6088270e-01
5.8352834e-01
9.6537463e-02
4.5048502e-01
3.3108854e-01
5.1432174e-01
2.4828096e-01
1.9578557e-01
5.4716432e-01
5.8115548e-01
1.2051031e-01
4.8006931e-01
3.0150914e-01
5.7826275e-01
1.4437555e-01
2.1969955e-01
5.4291368e-01
3.8497084e-01
4.1488695e-01
2.7225041e-01
5.0933498e-01
6.1172432e-01
0.0000000e+00
2.3650618e-02
3.5510918e-01
4.4475046e-01
6.1143637e-01
4.7280293e-02
6.1060143e-01
1.6811183e-01
5.7485265e-01
7.0867889e-02
3.2540894e-01
4.7445440e-01
6.0922027e-01
5.3817731e-01
2.4341717e-01
6.0729414e-01
9.4392307e-02
2.9597646e-01
1.9169793e-01
5.7092828e-01
5.0389248e-01
1.1783250e-01
6.0482466e-01
4.0871456e-01
3.7881213e-01
4.3861783e-01
4.6841490e-01
3.4901768e-01
1.4116749e-01
6.0181415e-01
5.3295940e-01
2.6691723e-01
2.1511275e-01
5.6649309e-01
6.3511574e-01
0.0000000e+00
2.3091916e-02
6.3481683e-01
4.9799913e-01
3.1943786e-01
6.3395000e-01
1.6437642e-01
5.9826523e-01
4.6163399e-02
6.9193818e-02
6.3251609e-01
5.6155115e-01
2.3833533e-01
2.9017866e-01
5.2726465e-01
9.2162557e-02
6.3051629e-01
4.3209258e-01
4.0217626e-01
1.8743852e-01
5.9418112e-01
4.6195617e-01
3.7231427e-01
6.2795246e-01
1.1504908e-01
4.9166012e-01
3.4261364e-01
5.5610675e-01
2.6134488e-01
1.3783291e-01
6.2482685e-01
5.8956540e-01
2.1033317e-01
3.1318069e-01
5.2109808e-01
0.0000000e+00
6.5793872e-01
2.2512518e-02
6.5762907e-01
6.2114227e-01
4.2518055e-01
1.6049369e-01
4.5005132e-02
6.5673107e-01
4.5508400e-01
3.9527786e-01
5.8442223e-01
2.3303989e-01
6.5524560e-01
2.8412089e-01
5.5016482e-01
6.7457721e-02
3.6548299e-01
4.8488110e-01
6.5317398e-01
8.9850202e-02
6.1690199e-01
1.8301111e-01
3.3590269e-01
5.1446527e-01
1.1216255e-01
6.5051800e-01
2.5553837e-01
5.7875621e-01
2.0536509e-01
6.1210984e-01
3.0664289e-01
5.4373062e-01
6.4728010e-01
1.3437480e-01
4.1788784e-01
4.4780442e-01
3.8802549e-01
4.7766814e-01
6.4346319e-01
3.5832435e-01
6.8017274e-01
0.0000000e+00
5.0737208e-01
1.5646710e-01
2.1912938e-02
6.7985260e-01
5.7257241e-01
2.7780852e-01
2.2753561e-01
6.7892426e-01
6.0677010e-01
4.3806516e-02
6.7738861e-01
6.5661155e-02
5.3680992e-01
3.2889083e-01
1.7841968e-01
6.3907057e-01
8.7457299e-02
6.7524695e-01
4.4012401e-01
6.0088754e-01
4.1022095e-01
1.0917546e-01
6.7250127e-01
2.4950284e-01
4.7002763e-01
2.9983038e-01
5.6587631e-01
4.9982479e-01
3.8042563e-01
6.3410628e-01
2.0021293e-01
6.6915393e-01
1.3079621e-01
3.5084471e-01
5.2940887e-01
5.9446740e-01
2.7124715e-01
6.6520798e-01
1.5230022e-01
6.2857473e-01
2.2182734e-01
7.0179790e-01
0.0000000e+00
7.0146757e-01
2.1293713e-02
3.2158425e-01
7.0050967e-01
5.5867398e-01
4.2568628e-02
6.9892520e-01
4.3204948e-01
4.6196637e-01
6.3805714e-02
4.9183020e-01
4.0218669e-01
1.7366827e-01
6.6066700e-01
8.4985979e-02
6.9671541e-01
6.2248087e-01
2.4324362e-01
5.2153409e-01
3.7248495e-01
2.9274911e-01
5.8751541e-01
6.9388241e-01
1.0609049e-01
1.9488125e-01
6.5553498e-01
5.5097175e-01
3.4305072e-01
1.2710035e-01
6.9042867e-01
2.6444262e-01
6.1583012e-01
4.5349151e-01
4.8339537e-01
4.2358807e-01
1.4799678e-01
6.4981657e-01
3.1398946e-01
5.8003789e-01
2.1592018e-01
6.8635726e-01
7.2279489e-01
0.0000000e+00
7.2245461e-01
2.0655395e-02
5.1319259e-01
3.9379218e-01
4.1292571e-02
7.2146803e-01
6.1893068e-02
7.1983606e-01
1.6876112e-01
6.8167192e-01
3.6421055e-01
5.4277653e-01
6.0862851e-01
7.1756017e-01
8.2438461e-02
2.8540537e-01
2.3676631e-01
6.4351684e-01
7.1464235e-01
1.0291038e-01
3.3494925e-01
5.7204133e-01
6.7637676e-01
1.8937480e-01
4.7452784e-01
4.4461060e-01
1.2329050e-01
4.1474727e-01
7.1108526e-01
5.0439179e-01
6.3664144e-01
2.5740096e-01
6.0088241e-01
3.0611318e-01
3.8504484e-01
5.3409564e-01
2.0981939e-01
6.7047650e-01
7.0689201e-01
1.4356063e-01
0.0000000e+00
7.4314481e-01
1.9998554e-02
3.5560974e-01
5.6353307e-01
7.4279493e-01
7.4178052e-01
3.9979484e-02
7.4010253e-01
1.6370262e-01
5.9924915e-02
7.0206642e-01
6.2919658e-01
2.7780575e-01
2.3007664e-01
6.6397655e-01
4.6523541e-01
7.9817005e-02
7.3776251e-01
3.2654750e-01
5.9259880e-01
4.9513954e-01
4.3533149e-01
4.0553489e-01
5.2493680e-01
9.9637970e-02
7.3476249e-01
6.9661283e-01
1.8369851e-01
3.7595242e-01
5.5452055e-01
7.3110521e-01
2.5012845e-01
1.1937008e-01
6.5688264e-01
6.2118888e-01
2.9796240e-01
6.9053614e-01
2.0353040e-01
5.8378506e-01
3.4669012e-01
1.3899569e-01
7.2679389e-01
4.8544404e-01
4.5552641e-01
7.6282954e-01
0.0000000e+00
1.9323779e-02
7.6247030e-01
7.6142895e-01
2.6995692e-01
6.4920121e-01
3.8630541e-02
4.2566243e-01
5.1530814e-01
1.5849729e-01
7.2183239e-01
6.8384171e-01
6.1262554e-01
3.1785294e-01
7.5970650e-01
5.7903018e-02
2.2318059e-01
3.9595914e-01
5.4501194e-01
7.7123970e-02
7.5730437e-01
5.7444900e-01
1.7785741e-01
7.1622521e-01
3.6652300e-01
7.5422484e-01
9.6276194e-02
2.8954434e-01
6.4093906e-01
6.7653561e-01
2.4263154e-01
1.1534258e-01
7.5047058e-01
3.3745959e-01
6.0351425e-01
4.7531387e-01
1.9705878e-01
7.0997739e-01
5.0521827e-01
4.4540936e-01
5.3501558e-01
4.1561195e-01
1.3430609e-01
7.4604499e-01
6.6862440e-01
2.6186588e-01
7.8183150e-01
5.6459910e-01
0.0000000e+00
3.8602841e-01
1.8631672e-02
7.8146321e-01
3.0887324e-01
6.3210368e-01
3.7246954e-02
7.8039581e-01
1.5314974e-01
2.1608427e-01
7.0309448e-01
7.4095201e-01
7.7863032e-01
5.5829186e-02
3.5676488e-01
5.9386307e-01
7.7616829e-01
7.4361749e-02
1.7185673e-01
7.3519623e-01
7.7301192e-01
2.8086647e-01
4.6475801e-01
9.2828065e-02
6.6011524e-01
4.9467611e-01
6.9558269e-01
2.3491688e-01
4.3489328e-01
5.2454042e-01
3.2792634e-01
6.2270296e-01
7.6916403e-01
1.1121161e-01
5.5424404e-01
4.0518892e-01
7.2878283e-01
1.9041035e-01
5.8368069e-01
3.7575153e-01
1.2949596e-01
7.6462811e-01
2.5353983e-01
6.8744880e-01
6.5101564e-01
2.9961634e-01
0.0000000e+00
8.0013353e-01
7.9975653e-01
1.7922856e-02
2.0879403e-01
7.2171754e-01
7.5940818e-01
1.4766479e-01
3.4668669e-01
6.1274529e-01
3.5829958e-02
7.9866403e-01
4.8369101e-01
5.3705279e-02
7.9685712e-01
5.1359576e-01
4.5378584e-01
5.4339308e-01
4.2398739e-01
7.1532831e-02
7.9433733e-01
6.7870009e-01
2.7193651e-01
1.6570184e-01
7.5350887e-01
3.1809881e-01
6.4133388e-01
2.2699137e-01
7.1400678e-01
8.9296654e-02
7.9110694e-01
5.7297623e-01
3.9440256e-01
7.8716886e-01
1.0698087e-01
1.8359101e-01
7.4693561e-01
6.0223961e-01
3.6513755e-01
2.9009050e-01
6.6934443e-01
1.2456966e-01
7.0565742e-01
2.4498615e-01
7.8252661e-01
5.0219136e-01
4.7227266e-01
4.4240698e-01
5.3205580e-01
3.3629736e-01
6.3107860e-01
7.3969430e-01
2.0131636e-01
8.1771940e-01
0.0000000e+00
5.6175917e-01
1.4204732e-01
4.1270137e-01
8.1733394e-01
1.7197965e-02
7.7718431e-01
3.4380827e-02
8.1621730e-01
5.1533204e-02
8.1437057e-01
2.6276234e-01
3.8326240e-01
6.9667697e-01
5.9119529e-01
3.0798566e-01
6.5939027e-01
8.1179523e-01
6.8639748e-02
1.5939821e-01
7.7114683e-01
2.1886204e-01
7.3179132e-01
8.0849373e-01
8.5685141e-02
6.2025899e-01
3.5419583e-01
4.9033722e-01
4.6043119e-01
5.2024239e-01
1.0265415e-01
8.0446893e-01
1.7660686e-01
7.6441956e-01
4.3063152e-01
5.5003959e-01
6.8707359e-01
2.8030413e-01
7.2323388e-01
2.3621248e-01
3.2560608e-01
6.4884651e-01
7.9972446e-01
1.1953159e-01
4.0104511e-01
5.7962227e-01
1.9365792e-01
7.5700849e-01
7.9426461e-01
1.3630238e-01
8.3457327e-01
0.0000000e+00
1.6457651e-02
8.3417970e-01
3.7177822e-01
6.0888481e-01
8.3303994e-01
3.2900862e-02
7.1402973e-01
2.5335217e-01
6.7685586e-01
2.9759589e-01
4.9314909e-02
8.3115494e-01
4.7804385e-01
5.0796318e-01
7.8809422e-01
6.5685093e-02
8.2852638e-01
1.5295152e-01
2.1053618e-01
7.4892044e-01
3.4293604e-01
6.3772267e-01
5.3782779e-01
4.4817701e-01
8.1996769e-02
8.2515663e-01
4.1846979e-01
5.6753087e-01
7.8121889e-01
1.6946419e-01
8.2104874e-01
2.7026591e-01
9.8235331e-02
7.0418710e-01
3.8902891e-01
5.9696621e-01
3.1462225e-01
6.6603303e-01
7.4016255e-01
2.2722661e-01
8.1620628e-01
1.1438626e-01
6.2602872e-01
7.7364475e-01
3.5996017e-01
1.8582560e-01
4.9522910e-01
8.1063366e-01
1.3043512e-01
4.6532208e-01
5.2513468e-01
2.8693867e-01
6.9371492e-01
8.5068005e-01
0.0000000e+00
8.5027879e-01
7.3074275e-01
1.5702579e-02
2.4371436e-01
8.4911686e-01
5.5493176e-01
4.3552089e-01
3.1391393e-02
8.4719527e-01
3.3136812e-01
6.5461481e-01
4.7052391e-02
2.0202121e-01
7.6537865e-01
4.0593252e-01
8.0433589e-01
1.4636755e-01
5.8451378e-01
8.4451586e-01
6.2671542e-02
7.8234851e-02
8.4108084e-01
6.1377519e-01
3.7666333e-01
2.5998479e-01
7.2066963e-01
7.9731858e-01
1.6216935e-01
6.8262255e-01
3.0335563e-01
8.3689344e-01
9.3728401e-02
7.5642812e-01
2.1803659e-01
5.1197147e-01
4.8205134e-01
6.4261150e-01
3.4781864e-01
8.3195734e-01
5.4183620e-01
4.5218307e-01
1.0913832e-01
7.8958809e-01
1.7782640e-01
4.2247391e-01
5.7153875e-01
2.7602345e-01
7.0995224e-01
1.2445082e-01
8.2627696e-01
7.4680108e-01
2.3385751e-01
6.7092013e-01
3.1950226e-01
6.0097301e-01
8.6602539e-01
0.0000000e+00
3.9303061e-01
1.4933432e-02
8.6561668e-01
2.9853784e-02
8.6443365e-01
1.9332476e-01
7.8115135e-01
4.4747688e-02
8.6247724e-01
8.1985736e-01
1.3965222e-01
5.9601787e-02
3.6395919e-01
6.3003397e-01
8.5974926e-01
7.3650634e-01
2.4946992e-01
2.9181617e-01
4.9834970e-01
7.4402787e-02
8.5625213e-01
6.9860023e-01
5.2825576e-01
4.6844146e-01
8.1270432e-01
1.5472893e-01
4.3863836e-01
2.0865065e-01
7.7201599e-01
5.5805260e-01
8.9137413e-02
6.5861821e-01
3.3536428e-01
8.5198891e-01
5.8763373e-01
4.0904751e-01
1.0379248e-01
8.4696352e-01
8.0482429e-01
1.6966751e-01
2.6485997e-01
7.2555321e-01
3.7977546e-01
6.1689353e-01
3.0734894e-01
2.2379042e-01
7.6219028e-01
6.8662399e-01
1.1835487e-01
8.4118038e-01
8.8059551e-01
0.0000000e+00
1.4150899e-02
8.8017976e-01
7.9622442e-01
6.4572787e-01
3.5092765e-01
8.7897658e-01
2.8289419e-02
1.8445465e-01
5.1420248e-01
4.8428139e-01
5.4406732e-01
4.5441139e-01
8.7698710e-01
4.2402875e-02
1.3281156e-01
8.3464468e-01
8.7421304e-01
5.6478616e-02
5.7376915e-01
2.8001410e-01
7.1395159e-01
4.2469975e-01
7.5168300e-01
2.3873065e-01
8.7065679e-01
7.0504017e-02
3.2260808e-01
6.7403430e-01
1.4714964e-01
7.8691232e-01
6.0320193e-01
8.2736230e-01
3.9525345e-01
1.9907717e-01
8.6632168e-01
8.4466502e-02
3.6617863e-01
6.3226080e-01
7.4050379e-01
2.5345817e-01
9.8353565e-02
8.6121142e-01
1.6135629e-01
8.1933975e-01
2.9491892e-01
7.0171201e-01
7.7689654e-01
2.1352211e-01
4.9968857e-01
5.2959526e-01
4.6977881e-01
5.5939168e-01
1.1215277e-01
4.3997335e-01
8.5533071e-01
6.6084254e-01
3.3758017e-01
8.1058425e-01
0.0000000e+00
1.7541885e-01
8.9437741e-01
1.3355689e-02
4.1037944e-01
5.8897144e-01
8.9395493e-01
2.6699707e-02
8.9273274e-01
1.2585177e-01
8.4868467e-01
4.0020075e-02
2.6795992e-01
7.2866279e-01
8.9071190e-01
7.6618600e-01
2.2777665e-01
6.1822915e-01
3.8110375e-01
5.3304836e-02
3.0956131e-01
6.8884563e-01
8.8789421e-01
6.6542067e-02
8.0110371e-01
1.8932481e-01
8.8428211e-01
1.3943829e-01
8.4127939e-01
3.5225198e-01
6.4706081e-01
5.1464909e-01
4.8472685e-01
8.7987882e-01
7.9719894e-02
5.4451400e-01
4.5485464e-01
2.4182817e-01
7.5479060e-01
7.1617067e-01
2.8222317e-01
8.3312142e-01
4.2513993e-01
5.7421476e-01
1.5290020e-01
9.2826501e-02
8.7468833e-01
2.0306180e-01
7.9090667e-01
3.2392842e-01
6.7536420e-01
6.0364550e-01
3.9568982e-01
8.6871523e-01
1.0585012e-01
8.2421809e-01
1.6622551e-01
0.0000000e+00
9.0735871e-01
9.0692991e-01
2.5566435e-01
7.4272054e-01
3.6661068e-01
6.3270158e-01
1.2548520e-02
2.5086088e-02
9.0568978e-01
2.1661769e-01
7.0303893e-01
7.8000242e-01
2.9623541e-01
8.6196482e-01
1.1877911e-01
9.0363938e-01
3.7601437e-02
4.9924189e-01
5.0083321e-02
9.0078056e-01
4.6933025e-01
5.2914923e-01
1.7940234e-01
8.1457752e-01
3.3800772e-01
6.6127998e-01
4.3952179e-01
5.5894506e-01
8.9711577e-01
6.2520526e-02
8.5444319e-01
1.3160187e-01
4.0992397e-01
5.8852297e-01
8.9264834e-01
7.4901886e-02
7.2998691e-01
2.6927298e-01
7.6840073e-01
2.2998047e-01
6.8927962e-01
3.0998445e-01
3.8064367e-01
6.1777776e-01
8.4615707e-01
1.4430693e-01
8.0420828e-01
1.9241896e-01
8.8738221e-01
8.7216273e-02
9.9452637e-02
8.8132203e-01
6.4660585e-01
3.5178691e-01
1.5688296e-01
5.1331079e-01
4.8338711e-01
8.3711386e-01
2.4313839e-01
7.5611228e-01
7.1660125e-01
2.8264225e-01
5.4317576e-01
4.5351216e-01
2.0526385e-01
9.1952777e-01
7.9311979e-01
0.0000000e+00
1.1730122e-02
9.1909301e-01
4.2379355e-01
1.1160000e-01
8.7447327e-01
5.7287508e-01
9.1783607e-01
2.3450019e-02
6.7490524e-01
3.2345828e-01
3.5149146e-02
9.1575801e-01
4.6816982e-02
3.9433861e-01
6.0230297e-01
9.1286057e-01
8.2732171e-01
1.6931874e-01
1.2364748e-01
8.6684203e-01
5.8443025e-02
9.0914643e-01
2.5607994e-01
7.4314815e-01
7.8132212e-01
2.1792567e-01
6.3135517e-01
3.6525398e-01
7.0257604e-01
2.9576048e-01
9.0461880e-01
7.0016824e-02
8.5843509e-01
1.3558426e-01
1.8160318e-01
8.1678945e-01
4.9701247e-01
4.6709844e-01
5.2692068e-01
8.9928174e-01
8.1527971e-02
6.5992904e-01
3.3664528e-01
5.5671567e-01
4.3728623e-01
7.6882595e-01
9.2966110e-02
8.9313996e-01
2.3039329e-01
2.6879385e-01
4.0768343e-01
7.2952038e-01
5.8629107e-01
8.4926003e-01
1.4739966e-01
8.0552655e-01
1.9372539e-01
6.8792403e-01
3.0861640e-01
0.0000000e+00
9.3087375e-01
3.7839726e-01
6.1554188e-01
1.0901235e-02
9.3043345e-01
1.0432097e-01
8.8619888e-01
9.2916077e-01
2.1792982e-02
3.2665424e-02
9.2705685e-01
8.3932501e-01
1.5908316e-01
9.2412347e-01
4.3508776e-02
6.4436489e-01
3.4953406e-01
7.5564277e-01
2.4265581e-01
1.1558234e-01
8.7846482e-01
2.8126916e-01
9.2036325e-01
2.0567469e-01
5.4313261e-02
4.8026833e-01
7.1524137e-01
5.1019388e-01
7.9354322e-01
4.5038989e-01
5.4005891e-01
6.5069146e-02
9.1577947e-01
4.2066637e-01
5.6975627e-01
3.2119894e-01
8.2863903e-01
6.7265880e-01
1.7062429e-01
8.6994457e-01
1.2674011e-01
7.5766750e-02
5.9918028e-01
3.9120525e-01
9.1037625e-01
2.5470260e-01
7.4178457e-01
2.1744056e-01
7.8085035e-01
9.0415835e-01
8.6396426e-02
1.3778427e-01
6.2822706e-01
3.6211357e-01
8.6064577e-01
7.0032442e-01
2.9349515e-01
8.1721163e-01
1.8201283e-01
9.6948609e-02
8.9713126e-01
9.4138646e-01
0.0000000e+00
1.0062608e-02
9.4094104e-01
4.9300987e-01
5.2291924e-01
4.6309277e-01
3.3349743e-01
2.0116473e-02
6.5679467e-01
9.3965381e-01
9.3752593e-01
5.5271327e-01
8.5057676e-01
4.3327585e-01
3.0152520e-02
1.4870493e-01
7.6745951e-01
2.2901271e-01
2.6652330e-01
7.2726417e-01
9.3455917e-01
4.0161695e-02
8.8930124e-01
1.0741378e-01
8.0505323e-01
5.8228523e-01
4.0366682e-01
1.9323866e-01
5.0134968e-02
9.3075627e-01
6.8478334e-01
3.0546141e-01
6.1153036e-01
3.7437305e-01
1.5949231e-01
9.2612046e-01
8.3974653e-01
6.0063332e-02
8.8067532e-01
1.1778253e-01
9.2065591e-01
6.9937833e-02
7.5338292e-01
2.4038115e-01
6.4034629e-01
3.4550148e-01
7.9217476e-01
2.0429195e-01
2.7810785e-01
7.1209502e-01
4.7538325e-01
5.0531137e-01
8.7126112e-01
1.2804553e-01
9.1436744e-01
7.9749547e-02
5.3517669e-01
4.4550052e-01
8.2816482e-01
1.7013679e-01
5.6487167e-01
4.1577092e-01
6.6863275e-01
3.1715795e-01
9.0726060e-01
8.9489616e-02
9.5105654e-01
0.0000000e+00