# vtk DataFile Version 4.0
vtk output
ASCII
DATASET UNSTRUCTURED_GRID
POINTS 4624 float
1.0000000e+00 1.0000000e+00 0.0000000e+00 
1.0000000e+00 9.8507464e-01 0.0000000e+00 
9.8507464e-01 1.0000000e+00 0.0000000e+00 
9.8507464e-01 9.8507464e-01 0.0000000e+00 
1.0000000e+00 9.7014928e-01 0.0000000e+00 
9.7014928e-01 1.0000000e+00 0.0000000e+00 
9.7014928e-01 9.8507464e-01 0.0000000e+00 
9.8507464e-01 9.7014928e-01 0.0000000e+00 
9.7014928e-01 9.7014928e-01 0.0000000e+00 
1.0000000e+00 9.5522386e-01 0.0000000e+00 
9.5522386e-01 1.0000000e+00 0.0000000e+00 
9.8507464e-01 9.5522386e-01 0.0000000e+00 
9.5522386e-01 9.8507464e-01 0.0000000e+00 
9.5522386e-01 9.7014928e-01 0.0000000e+00 
9.7014928e-01 9.5522386e-01 0.0000000e+00 
9.4029850e-01 1.0000000e+00 0.0000000e+00 
1.0000000e+00 9.4029850e-01 0.0000000e+00 
9.8507464e-01 9.4029850e-01 0.0000000e+00 
9.4029850e-01 9.8507464e-01 0.0000000e+00 
9.5522386e-01 9.5522386e-01 0.0000000e+00 
9.7014928e-01 9.4029850e-01 0.0000000e+00 
9.4029850e-01 9.7014928e-01 0.0000000e+00 
9.5522386e-01 9.4029850e-01 0.0000000e+00 
9.4029850e-01 9.5522386e-01 0.0000000e+00 
9.2537314e-01 1.0000000e+00 0.0000000e+00 
1.0000000e+00 9.2537314e-01 0.0000000e+00 
9.2537314e-01 9.8507464e-01 0.0000000e+00 
9.8507464e-01 9.2537314e-01 0.0000000e+00 
9.7014928e-01 9.2537314e-01 0.0000000e+00 
9.2537314e-01 9.7014928e-01 0.0000000e+00 
9.4029850e-01 9.4029850e-01 0.0000000e+00 
9.2537314e-01 9.5522386e-01 0.0000000e+00 
9.5522386e-01 9.2537314e-01 0.0000000e+00 
9.1044778e-01 1.0000000e+00 0.0000000e+00 
1.0000000e+00 9.1044778e-01 0.0000000e+00 
9.1044778e-01 9.8507464e-01 0.0000000e+00 
9.8507464e-01 9.1044778e-01 0.0000000e+00 
9.1044778e-01 9.7014928e-01 0.0000000e+00 
9.7014928e-01 9.1044778e-01 0.0000000e+00 
9.4029850e-01 9.2537314e-01 0.0000000e+00 
9.2537314e-01 9.4029850e-01 0.0000000e+00 
9.5522386e-01 9.1044778e-01 0.0000000e+00 
9.1044778e-01 9.5522386e-01 0.0000000e+00 
8.9552242e-01 1.0000000e+00 0.0000000e+00 
1.0000000e+00 8.9552242e-01 0.0000000e+00 
9.2537314e-01 9.2537314e-01 0.0000000e+00 
9.8507464e-01 8.9552242e-01 0.0000000e+00 
8.9552242e-01 9.8507464e-01 0.0000000e+00 
9.1044778e-01 9.4029850e-01 0.0000000e+00 
9.4029850e-01 9.1044778e-01 0.0000000e+00 
8.9552242e-01 9.7014928e-01 0.0000000e+00 
9.7014928e-01 8.9552242e-01 0.0000000e+00 
8.9552242e-01 9.5522386e-01 0.0000000e+00 
9.5522386e-01 8.9552242e-01 0.0000000e+00 
9.2537314e-01 9.1044778e-01 0.0000000e+00 
9.1044778e-01 9.2537314e-01 0.0000000e+00 
8.8059700e-01 1.0000000e+00 0.0000000e+00 
1.0000000e+00 8.8059700e-01 0.0000000e+00 
9.4029850e-01 8.9552242e-01 0.0000000e+00 
8.8059700e-01 9.8507464e-01 0.0000000e+00 
9.8507464e-01 8.8059700e-01 0.0000000e+00 
8.9552242e-01 9.4029850e-01 0.0000000e+00 
9.7014928e-01 8.8059700e-01 0.0000000e+00 
8.8059700e-01 9.7014928e-01 0.0000000e+00 
9.1044778e-01 9.1044778e-01 0.0000000e+00 
9.5522386e-01 8.8059700e-01 0.0000000e+00 
8.8059700e-01 9.5522386e-01 0.0000000e+00 
8.9552242e-01 9.2537314e-01 0.0000000e+00 
9.2537314e-01 8.9552242e-01 0.0000000e+00 
9.4029850e-01 8.8059700e-01 0.0000000e+00 
8.8059700e-01 9.4029850e-01 0.0000000e+00 
1.0000000e+00 8.6567163e-01 0.0000000e+00 
8.6567163e-01 1.0000000e+00 0.0000000e+00 
8.6567163e-01 9.8507464e-01 0.0000000e+00 
9.8507464e-01 8.6567163e-01 0.0000000e+00 
8.9552242e-01 9.1044778e-01 0.0000000e+00 
9.1044778e-01 8.9552242e-01 0.0000000e+00 
9.7014928e-01 8.6567163e-01 0.0000000e+00 
8.6567163e-01 9.7014928e-01 0.0000000e+00 
9.2537314e-01 8.8059700e-01 0.0000000e+00 
8.8059700e-01 9.2537314e-01 0.0000000e+00 
8.6567163e-01 9.5522386e-01 0.0000000e+00 
9.5522386e-01 8.6567163e-01 0.0000000e+00 
9.4029850e-01 8.6567163e-01 0.0000000e+00 
8.6567163e-01 9.4029850e-01 0.0000000e+00 
8.9552242e-01 8.9552242e-01 0.0000000e+00 
8.5074627e-01 1.0000000e+00 0.0000000e+00 
1.0000000e+00 8.5074627e-01 0.0000000e+00 
8.8059700e-01 9.1044778e-01 0.0000000e+00 
9.1044778e-01 8.8059700e-01 0.0000000e+00 
8.5074627e-01 9.8507464e-01 0.0000000e+00 
9.8507464e-01 8.5074627e-01 0.0000000e+00 
8.5074627e-01 9.7014928e-01 0.0000000e+00 
9.7014928e-01 8.5074627e-01 0.0000000e+00 
8.6567163e-01 9.2537314e-01 0.0000000e+00 
9.2537314e-01 8.6567163e-01 0.0000000e+00 
8.5074627e-01 9.5522386e-01 0.0000000e+00 
9.5522386e-01 8.5074627e-01 0.0000000e+00 
8.9552242e-01 8.8059700e-01 0.0000000e+00 
8.8059700e-01 8.9552242e-01 0.0000000e+00 
9.4029850e-01 8.5074627e-01 0.0000000e+00 
8.5074627e-01 9.4029850e-01 0.0000000e+00 
9.1044778e-01 8.6567163e-01 0.0000000e+00 
8.6567163e-01 9.1044778e-01 0.0000000e+00 
8.3582091e-01 1.0000000e+00 0.0000000e+00 
1.0000000e+00 8.3582091e-01 0.0000000e+00 
8.3582091e-01 9.8507464e-01 0.0000000e+00 
9.8507464e-01 8.3582091e-01 0.0000000e+00 
9.7014928e-01 8.3582091e-01 0.0000000e+00 
8.5074627e-01 9.2537314e-01 0.0000000e+00 
9.2537314e-01 8.5074627e-01 0.0000000e+00 
8.3582091e-01 9.7014928e-01 0.0000000e+00 
8.8059700e-01 8.8059700e-01 0.0000000e+00 
8.9552242e-01 8.6567163e-01 0.0000000e+00 
8.3582091e-01 9.5522386e-01 0.0000000e+00 
9.5522386e-01 8.3582091e-01 0.0000000e+00 
8.6567163e-01 8.9552242e-01 0.0000000e+00 
8.5074627e-01 9.1044778e-01 0.0000000e+00 
9.1044778e-01 8.5074627e-01 0.0000000e+00 
9.4029850e-01 8.3582091e-01 0.0000000e+00 
8.3582091e-01 9.4029850e-01 0.0000000e+00 
1.0000000e+00 8.2089549e-01 0.0000000e+00 
8.2089549e-01 1.0000000e+00 0.0000000e+00 
9.8507464e-01 8.2089549e-01 0.0000000e+00 
8.2089549e-01 9.8507464e-01 0.0000000e+00 
8.8059700e-01 8.6567163e-01 0.0000000e+00 
8.6567163e-01 8.8059700e-01 0.0000000e+00 
9.2537314e-01 8.3582091e-01 0.0000000e+00 
8.3582091e-01 9.2537314e-01 0.0000000e+00 
8.2089549e-01 9.7014928e-01 0.0000000e+00 
9.7014928e-01 8.2089549e-01 0.0000000e+00 
8.9552242e-01 8.5074627e-01 0.0000000e+00 
8.5074627e-01 8.9552242e-01 0.0000000e+00 
9.5522386e-01 8.2089549e-01 0.0000000e+00 
8.2089549e-01 9.5522386e-01 0.0000000e+00 
8.3582091e-01 9.1044778e-01 0.0000000e+00 
9.1044778e-01 8.3582091e-01 0.0000000e+00 
9.4029850e-01 8.2089549e-01 0.0000000e+00 
8.2089549e-01 9.4029850e-01 0.0000000e+00 
8.6567163e-01 8.6567163e-01 0.0000000e+00 
8.8059700e-01 8.5074627e-01 0.0000000e+00 
8.5074627e-01 8.8059700e-01 0.0000000e+00 
8.2089549e-01 9.2537314e-01 0.0000000e+00 
9.2537314e-01 8.2089549e-01 0.0000000e+00 
1.0000000e+00 8.0597013e-01 0.0000000e+00 
8.0597013e-01 1.0000000e+00 0.0000000e+00 
8.3582091e-01 8.9552242e-01 0.0000000e+00 
8.9552242e-01 8.3582091e-01 0.0000000e+00 
8.0597013e-01 9.8507464e-01 0.0000000e+00 
9.8507464e-01 8.0597013e-01 0.0000000e+00 
8.0597013e-01 9.7014928e-01 0.0000000e+00 
9.7014928e-01 8.0597013e-01 0.0000000e+00 
8.0597013e-01 9.5522386e-01 0.0000000e+00 
9.5522386e-01 8.0597013e-01 0.0000000e+00 
8.2089549e-01 9.1044778e-01 0.0000000e+00 
9.1044778e-01 8.2089549e-01 0.0000000e+00 
8.6567163e-01 8.5074627e-01 0.0000000e+00 
8.5074627e-01 8.6567163e-01 0.0000000e+00 
9.4029850e-01 8.0597013e-01 0.0000000e+00 
8.0597013e-01 9.4029850e-01 0.0000000e+00 
8.3582091e-01 8.8059700e-01 0.0000000e+00 
8.8059700e-01 8.3582091e-01 0.0000000e+00 
8.9552242e-01 8.2089549e-01 0.0000000e+00 
8.2089549e-01 8.9552242e-01 0.0000000e+00 
8.0597013e-01 9.2537314e-01 0.0000000e+00 
9.2537314e-01 8.0597013e-01 0.0000000e+00 
1.0000000e+00 7.9104477e-01 0.0000000e+00 
7.9104477e-01 1.0000000e+00 0.0000000e+00 
7.9104477e-01 9.8507464e-01 0.0000000e+00 
9.8507464e-01 7.9104477e-01 0.0000000e+00 
8.5074627e-01 8.5074627e-01 0.0000000e+00 
9.7014928e-01 7.9104477e-01 0.0000000e+00 
7.9104477e-01 9.7014928e-01 0.0000000e+00 
8.3582091e-01 8.6567163e-01 0.0000000e+00 
8.6567163e-01 8.3582091e-01 0.0000000e+00 
8.0597013e-01 9.1044778e-01 0.0000000e+00 
9.1044778e-01 8.0597013e-01 0.0000000e+00 
9.5522386e-01 7.9104477e-01 0.0000000e+00 
7.9104477e-01 9.5522386e-01 0.0000000e+00 
8.8059700e-01 8.2089549e-01 0.0000000e+00 
8.2089549e-01 8.8059700e-01 0.0000000e+00 
9.4029850e-01 7.9104477e-01 0.0000000e+00 
7.9104477e-01 9.4029850e-01 0.0000000e+00 
8.9552242e-01 8.0597013e-01 0.0000000e+00 
8.0597013e-01 8.9552242e-01 0.0000000e+00 
8.5074627e-01 8.3582091e-01 0.0000000e+00 
8.3582091e-01 8.5074627e-01 0.0000000e+00 
9.2537314e-01 7.9104477e-01 0.0000000e+00 
7.9104477e-01 9.2537314e-01 0.0000000e+00 
8.6567163e-01 8.2089549e-01 0.0000000e+00 
8.2089549e-01 8.6567163e-01 0.0000000e+00 
7.7611941e-01 1.0000000e+00 0.0000000e+00 
1.0000000e+00 7.7611941e-01 0.0000000e+00 
9.8507464e-01 7.7611941e-01 0.0000000e+00 
7.7611941e-01 9.8507464e-01 0.0000000e+00 
9.7014928e-01 7.7611941e-01 0.0000000e+00 
7.7611941e-01 9.7014928e-01 0.0000000e+00 
7.9104477e-01 9.1044778e-01 0.0000000e+00 
9.1044778e-01 7.9104477e-01 0.0000000e+00 
8.0597013e-01 8.8059700e-01 0.0000000e+00 
8.8059700e-01 8.0597013e-01 0.0000000e+00 
7.7611941e-01 9.5522386e-01 0.0000000e+00 
9.5522386e-01 7.7611941e-01 0.0000000e+00 
9.4029850e-01 7.7611941e-01 0.0000000e+00 
7.7611941e-01 9.4029850e-01 0.0000000e+00 
8.3582091e-01 8.3582091e-01 0.0000000e+00 
8.5074627e-01 8.2089549e-01 0.0000000e+00 
8.2089549e-01 8.5074627e-01 0.0000000e+00 
8.9552242e-01 7.9104477e-01 0.0000000e+00 
7.9104477e-01 8.9552242e-01 0.0000000e+00 
9.2537314e-01 7.7611941e-01 0.0000000e+00 
7.7611941e-01 9.2537314e-01 0.0000000e+00 
8.0597013e-01 8.6567163e-01 0.0000000e+00 
8.6567163e-01 8.0597013e-01 0.0000000e+00 
1.0000000e+00 7.6119405e-01 0.0000000e+00 
7.6119405e-01 1.0000000e+00 0.0000000e+00 
9.8507464e-01 7.6119405e-01 0.0000000e+00 
7.6119405e-01 9.8507464e-01 0.0000000e+00 
7.9104477e-01 8.8059700e-01 0.0000000e+00 
8.8059700e-01 7.9104477e-01 0.0000000e+00 
7.6119405e-01 9.7014928e-01 0.0000000e+00 
9.7014928e-01 7.6119405e-01 0.0000000e+00 
7.7611941e-01 9.1044778e-01 0.0000000e+00 
9.1044778e-01 7.7611941e-01 0.0000000e+00 
8.2089549e-01 8.3582091e-01 0.0000000e+00 
8.3582091e-01 8.2089549e-01 0.0000000e+00 
9.5522386e-01 7.6119405e-01 0.0000000e+00 
7.6119405e-01 9.5522386e-01 0.0000000e+00 
8.0597013e-01 8.5074627e-01 0.0000000e+00 
8.5074627e-01 8.0597013e-01 0.0000000e+00 
[...]
POINT_DATA 4624
FIELD FieldData 1
TEMPERATURE 1 4624  float
-1.2246469e-16
0.0000000e+00
-4.6872262e-02
-4.6818998e-02
0.0000000e+00
-9.3641490e-02
-9.3535177e-02
-4.6662971e-02
-9.3223564e-02
0.0000000e+00
-1.4020488e-01
-4.6404518e-02
-1.4004584e-01
-1.3957943e-01
-9.2707328e-02
-1.8646005e-01
0.0000000e+00
-4.6044204e-02
-1.8624875e-01
-1.3880664e-01
-9.1987588e-02
-1.8562865e-01
-1.3772915e-01
-1.8460111e-01
-2.3230536e-01
0.0000000e+00
-2.3204234e-01
-4.5582816e-02
-9.1065921e-02
-2.3127003e-01
-1.8316835e-01
-2.2999008e-01
-1.3634934e-01
-2.7764001e-01
0.0000000e+00
-2.7732596e-01
-4.5021359e-02
-2.7640322e-01
-8.9944340e-02
-1.8133350e-01
-2.2820528e-01
-1.3467018e-01
-2.7487376e-01
-3.2236433e-01
0.0000000e+00
-2.2591953e-01
-4.4361066e-02
-3.2200003e-01
-2.7274096e-01
-1.7910056e-01
-3.2092899e-01
-8.8625297e-02
-3.1915349e-01
-1.3269539e-01
-2.2313781e-01
-2.7000940e-01
-3.6638004e-01
0.0000000e+00
-1.7647445e-01
-3.6596638e-01
-4.3603379e-02
-3.1667745e-01
-8.7111682e-02
-3.6474946e-01
-2.6668513e-01
-1.3042927e-01
-3.6273196e-01
-3.1350622e-01
-2.1986625e-01
-1.7346090e-01
-3.5991821e-01
0.0000000e+00
-4.0959036e-01
-4.0912834e-01
-4.2749964e-02
-3.0964679e-01
-2.6277539e-01
-8.5406825e-02
-4.0776837e-01
-2.1611197e-01
-3.5631436e-01
-4.0551332e-01
-1.2787679e-01
-1.7006652e-01
-4.0236816e-01
-3.0510753e-01
-4.5190030e-01
0.0000000e+00
-3.5192832e-01
-2.5828874e-01
-4.5139107e-01
-4.1802689e-02
-4.4989106e-01
-8.3514445e-02
-3.9833972e-01
-2.1188323e-01
-4.4740358e-01
-1.2504357e-01
-2.9989848e-01
-3.4676966e-01
-1.6629875e-01
-4.4393399e-01
-2.5323501e-01
-3.9343682e-01
-4.9321690e-01
0.0000000e+00
-4.9266160e-01
-4.0763635e-02
-8.1438713e-02
-4.3948990e-01
-2.0718931e-01
-4.9102500e-01
-3.4084973e-01
-2.9403099e-01
-4.8831061e-01
-1.2193580e-01
-3.8767019e-01
-4.3408102e-01
-2.4762534e-01
-1.6216587e-01
-4.8452434e-01
0.0000000e+00
-5.3344929e-01
-3.9635081e-02
-5.3284925e-01
-3.3418143e-01
-3.8105243e-01
-2.0204048e-01
-4.7967446e-01
-5.3107977e-01
-7.9184167e-02
-2.8751794e-01
-4.2771915e-01
-1.1856031e-01
-5.2814454e-01
-4.7377157e-01
-2.4147198e-01
-1.5767695e-01
-5.2405000e-01
-3.7359813e-01
-3.2677945e-01
-4.2041829e-01
-5.1880509e-01
-1.9644806e-01
0.0000000e+00
-5.7250899e-01
-4.6682858e-01
-2.8037366e-01
-5.7186568e-01
-3.8419504e-02
-5.6996721e-01
-7.6755770e-02
-5.6681770e-01
-1.1492451e-01
-5.1242125e-01
-2.3478845e-01
-3.6532354e-01
-4.1219440e-01
-1.5284182e-01
-5.6242400e-01
-4.5886073e-01
-3.1866002e-01
-2.7261379e-01
-5.0491250e-01
-5.5679572e-01
-1.9042434e-01
0.0000000e+00
-6.1031026e-01
-6.0962516e-01
-3.7119567e-02
-4.0306550e-01
-7.4158840e-02
-6.0760200e-01
-4.4988543e-01
-3.5624689e-01
-5.4994512e-01
-2.2758943e-01
-1.1103638e-01
-6.0424519e-01
-3.0984095e-01
-4.9629524e-01
-1.4767112e-01
-5.9956205e-01
-2.6425537e-01
-5.4188716e-01
-3.9305165e-01
-4.3992236e-01
-1.8398251e-01
-5.9356284e-01
-3.4638807e-01
-4.8658839e-01
-6.4676994e-01
0.0000000e+00
-3.5738129e-02
-6.4604455e-01
-7.1399078e-02
-6.4390129e-01
-5.8626062e-01
-2.1989071e-01
-5.3263956e-01
-3.0034161e-01
-6.4034468e-01
-1.0690445e-01
-1.4217618e-01
-6.3538253e-01
-4.2899343e-01
-3.8217485e-01
-4.7581318e-01
-2.5531679e-01
-5.7767135e-01
-1.7713673e-01
-6.2902564e-01
-5.2222258e-01
-3.3576873e-01
0.0000000e+00
-6.8180782e-01
-3.4278214e-02
-6.8104392e-01
-5.6781387e-01
-2.9018286e-01
-6.7878532e-01
-6.8482541e-02
-6.2128794e-01
-2.1170923e-01
-4.6399325e-01
-4.1712260e-01
-1.0253778e-01
-6.7503679e-01
-5.1065898e-01
-3.7045893e-01
-6.6980660e-01
-1.3636906e-01
-2.4581768e-01
-6.1218637e-01
-3.2441226e-01
-5.5670977e-01
-1.6990203e-01
-6.6310614e-01
-4.5115453e-01
-2.7938706e-01
0.0000000e+00
-7.1534699e-01
-6.0174078e-01
-3.2743026e-02
-7.1454632e-01
-4.0433592e-01
-4.9797416e-01
-2.0306294e-01
-6.5495014e-01
-7.1217734e-01
-6.5415613e-02
-5.4438335e-01
-3.5792968e-01
-7.0824528e-01
-9.7945951e-02
-1.3026252e-01
-7.0275861e-01
-2.3577887e-01
-6.4535630e-01
-5.8997411e-01
-3.1234354e-01
-4.8419592e-01
-4.3732524e-01
-1.6229428e-01
-6.9572943e-01
-5.3086156e-01
-3.9066151e-01
-2.6797789e-01
-6.3434577e-01
0.0000000e+00
-7.4731362e-01
-6.8717307e-01
-1.9397080e-01
-5.7691205e-01
-3.4461465e-01
-3.1135928e-02
-7.4647802e-01
-6.2205028e-02
-7.4400401e-01
-9.3139023e-02
-7.3989707e-01
-2.9958916e-01
-6.2194252e-01
-2.2522244e-01
-4.6935445e-01
-6.7710829e-01
-1.2386991e-01
-7.3416609e-01
-4.2253578e-01
-5.1617414e-01
-3.7612945e-01
-5.6258321e-01
-1.5433015e-01
-7.2682375e-01
-6.6555709e-01
-2.5598043e-01
-3.3054313e-01
-6.0817373e-01
-1.8445279e-01
-7.1788597e-01
-7.7763754e-01
0.0000000e+00
-7.7676880e-01
-2.9460438e-02
-4.5348242e-01
-5.0035322e-01
-7.7419525e-01
-5.8857810e-02
-4.0681863e-01
-5.4701900e-01
-6.5254474e-01
-2.8617713e-01
-7.6992255e-01
-8.8127524e-02
-7.0737249e-01
-2.1417154e-01
-3.6077172e-01
-5.9306949e-01
-1.1720526e-01
-7.6395994e-01
-1.4602712e-01
-7.5632060e-01
-2.4342106e-01
-6.9530618e-01
-3.1574607e-01
-6.3809967e-01
-4.8343354e-01
-5.3025353e-01
-4.3661472e-01
-7.4702126e-01
-1.7452973e-01
-3.9020842e-01
0.0000000e+00
-8.0625200e-01
-5.7666290e-01
-8.0535215e-01
-2.7720222e-02
-8.0268478e-01
-5.5381287e-02
-2.7213699e-01
-6.8171346e-01
-7.9825568e-01
-8.2922429e-02
-6.2225342e-01
-3.4462214e-01
-7.3608226e-01
-2.0265043e-01
-7.9207462e-01
-1.1028315e-01
-5.1232344e-01
-4.6545234e-01
-6.6662413e-01
-3.0025604e-01
-5.5898976e-01
-4.1878852e-01
-1.3740334e-01
-7.8415513e-01
-7.2352749e-01
-2.3032734e-01
-6.0504073e-01
-3.7274179e-01
-1.6422339e-01
-7.7451468e-01
-8.3309418e-01
0.0000000e+00
-8.3216518e-01
-2.5919085e-02
-2.5749955e-01
-7.0938462e-01
-3.2771632e-01
-6.5007097e-01
-5.1783051e-02
-8.2940978e-01
-1.9068433e-01
-7.6317436e-01
-4.9326819e-01
-7.7535108e-02
-8.2483411e-01
-4.4644919e-01
-5.4008877e-01
-1.0311872e-01
-8.1844819e-01
-5.8649904e-01
-4.0004310e-01
-6.9368434e-01
-2.8410718e-01
-7.5015903e-01
-2.1672797e-01
-8.1026608e-01
-1.2847768e-01
-3.5445729e-01
-6.3209027e-01
-8.0030578e-01
-1.5355630e-01
-2.4229695e-01
-7.3549718e-01
-4.7312972e-01
-5.2000141e-01
-3.1009156e-01
-6.7646104e-01
-8.5810506e-01
0.0000000e+00
-2.4060963e-02
-8.5714889e-01
-5.6666887e-01
-4.2646602e-01
-4.8070971e-02
-8.5431159e-01
-7.8858918e-01
-1.7829946e-01
-8.4959936e-01
-3.8041997e-01
-6.1272109e-01
-7.1977332e-02
-9.5727600e-02
-8.4302264e-01
-2.6733491e-01
-7.1922082e-01
-6.5775222e-01
-3.3539531e-01
-2.0265274e-01
-7.7514195e-01
-8.3459586e-01
-1.1926963e-01
-4.9877173e-01
-5.4559356e-01
-4.5195246e-01
-1.4255176e-01
-8.2433766e-01
-5.9200561e-01
-4.0554711e-01
-2.9178661e-01
-7.0136559e-01
-7.5999361e-01
-2.2656253e-01
-8.8122958e-01
0.0000000e+00
-2.2149907e-02
-8.8024837e-01
-6.3759857e-01
-3.5996255e-01
-8.1227058e-01
-1.6552284e-01
-4.4253141e-02
-8.7733531e-01
-6.6261232e-02
-8.7249690e-01
-2.4997611e-01
-7.4317729e-01
-3.1559795e-01
-6.8197030e-01
-4.7644657e-01
-5.2331930e-01
-8.8125929e-02
-8.6574376e-01
-1.8813241e-01
-7.9842120e-01
-5.6998897e-01
-4.2978331e-01
-8.5709089e-01
-1.0979928e-01
-6.1604387e-01
-3.8373888e-01
-7.2472978e-01
-2.7284178e-01
-2.1033068e-01
-7.8281981e-01
-8.4655732e-01
-1.3123377e-01
-6.6107708e-01
-3.3871618e-01
0.0000000e+00
-9.0241700e-01
-2.0190090e-02
-9.0141284e-01
-8.3416635e-01
-4.9989492e-01
-1.5238236e-01
-4.5307535e-01
-5.4671907e-01
-8.9843041e-01
-4.0337887e-02
-7.6550078e-01
-2.3206876e-01
-8.9347631e-01
-7.0469117e-01
-2.9510888e-01
-6.0399260e-02
-4.0667170e-01
-5.9313470e-01
-8.0330268e-02
-8.8656157e-01
-1.7319863e-01
-8.1994528e-01
-3.6108992e-01
-6.3873118e-01
-8.7770152e-01
-1.0008726e-01
-2.5329861e-01
-7.4650192e-01
-1.9363682e-01
-6.8310511e-01
-3.1672794e-01
-8.0392534e-01
-1.1962698e-01
-8.6691570e-01
-5.2224678e-01
-4.7537225e-01
-5.6892073e-01
-4.2871025e-01
0.0000000e+00
-9.2162073e-01
-6.1498076e-01
-3.8266927e-01
-1.3890661e-01
-8.5422802e-01
-1.8185781e-02
-9.2059565e-01
-7.2586471e-01
-2.7397317e-01
-7.8614181e-01
-2.1365194e-01
-9.1755033e-01
-3.6333747e-02
-9.1249138e-01
-5.4404199e-02
-6.6001809e-01
-3.3765063e-01
-8.3966649e-01
-1.5788390e-01
-7.2357602e-02
-9.0543014e-01
-4.9662575e-01
-8.9638227e-01
-7.6663375e-01
-2.3319979e-01
-9.0154715e-02
-5.4345435e-01
-4.4980603e-01
-7.0363402e-01
-2.9404637e-01
-4.0340608e-01
-5.8987683e-01
-1.7651725e-01
-8.2326323e-01
-1.0775662e-01
-8.8536787e-01
-6.3547987e-01
-3.5782993e-01
-2.5223708e-01
-7.4544382e-01
-8.7241125e-01
-1.2512486e-01
-9.3879849e-01
0.0000000e+00
-1.9476569e-01
-8.0505449e-01
-9.3775475e-01
-1.6141353e-02
-3.1347317e-01
-6.7985797e-01
-9.3465298e-01
-3.2249451e-02
-9.2950022e-01
-4.8289105e-02
-4.6991301e-01
-5.1679069e-01
-1.4222148e-01
-8.5754120e-01
-5.6347299e-01
-4.2325404e-01
-6.4225294e-02
-9.2230785e-01
-3.7722015e-01
-2.1258904e-01
-7.8508031e-01
-6.0954267e-01
-2.7072138e-01
-7.2261834e-01
-8.0023237e-02
-9.1309196e-01
-8.4079057e-01
-1.5900907e-01
-3.3220941e-01
-6.5458745e-01
-9.5648497e-02
-9.0187293e-01
-2.2994792e-01
-7.6338470e-01
-4.8898822e-01
-5.3582549e-01
-4.4216907e-01
-6.9820672e-01
-2.8861102e-01
-8.2219654e-01
-1.7545091e-01
-1.1106703e-01
-8.8867569e-01
0.0000000e+00
-9.5391256e-01
-9.5285225e-01
-1.4061267e-02
-3.9577723e-01
-5.8226132e-01
-9.4970083e-01
-2.8093904e-02
-4.2067312e-02
-9.4446540e-01
-8.7352961e-01
-6.2787616e-01
-1.2624526e-01
-3.5021204e-01
-5.5951044e-02
-9.3715757e-01
-2.4680372e-01
-7.4001533e-01
-1.9151092e-01
-8.0180025e-01
-6.9714881e-02
-9.2779362e-01
-6.7226142e-01
-3.0586508e-01
-8.5646826e-01
-1.4115018e-01
-5.0699294e-01
-4.6010953e-01
-9.1639441e-01
-8.3328910e-02
-5.5369294e-01
-4.1345879e-01
-7.7964681e-01
-2.0715377e-01
-2.6311862e-01
-7.1502316e-01
-5.9978038e-01
-3.6743897e-01
-1.5574931e-01
-8.3752960e-01
-9.0298533e-01
-9.6763596e-02
-9.6692979e-01
0.0000000e+00
-9.6585506e-01
-1.1950064e-02
-6.4483744e-01
-3.2244298e-01
-2.3876183e-02
-9.6266073e-01
-9.5735389e-01
-3.5752401e-02
-1.0998985e-01
-8.8759619e-01
-7.5578529e-01
-2.2234492e-01
-1.7001081e-01
-8.1675583e-01
-9.4994646e-01
-4.7552899e-02
-4.7703722e-01
-2.7885538e-01
-6.8846238e-01
-5.2389503e-01
-4.3022385e-01
-3.8385028e-01
-5.7035887e-01
-5.9252083e-02
-9.4045484e-01
-8.7026125e-01
-1.2297909e-01
-3.3830407e-01
-6.1599177e-01
-7.9419303e-01
-7.0824623e-02
-9.2890024e-01
-1.8390352e-01
-2.3705079e-01
-7.3026848e-01
-1.3570328e-01
-8.5101926e-01
-6.6038907e-01
-2.9397628e-01
-8.2245566e-02
-9.1530842e-01
-9.7782147e-01
0.0000000e+00
-4.4602981e-01
-4.9292237e-01
-9.8123690e-03
-9.7673458e-01
-7.6989156e-01
-1.9739698e-01
-3.9940885e-01
-5.3967190e-01
-1.9605514e-02
-9.7350413e-01
-8.9970964e-01
-9.3490370e-02
-1.4813492e-01
-7.0315289e-01
-2.5123885e-01
-8.2991314e-01
-2.9358173e-02
-9.6813744e-01
-5.8578634e-01
-3.5341007e-01
-3.9049208e-02
-9.6064645e-01
-6.3085866e-01
-1.0453498e-01
-8.8213879e-01
-3.0844021e-01
-9.5104778e-01
-4.8657671e-02
-2.1046184e-01
-7.4390590e-01
-8.0698997e-01
-1.6024700e-01
-5.8162879e-02
-9.3936282e-01
-6.7449838e-01
-2.6487750e-01
-4.6083599e-01
-8.6263514e-01
-1.1535591e-01
-5.0775719e-01
-4.1406408e-01
-6.7544475e-02
-9.2561775e-01
-3.6774424e-01
-5.5430734e-01
-1.7201297e-01
-7.8230107e-01
0.0000000e+00
-9.8656362e-01
-3.2219115e-01
-5.9991580e-01
-7.1629506e-01
-2.2307053e-01
-9.8546684e-01
-7.6528690e-03
-9.8220724e-01
-1.5291265e-02
-1.2593016e-01
-8.4124243e-01
-7.6782510e-02
-9.0984309e-01
-2.2898650e-02
-9.7679228e-01
-6.4436865e-01
-2.7793664e-01
-3.0458592e-02
-9.6923393e-01
-8.5857563e-02
-8.9207423e-01
-9.5954901e-01
-3.7954826e-02
-1.8340708e-01
-7.5590205e-01
-4.2771450e-01
-4.7458974e-01
-1.3623507e-01
-8.1800854e-01
-5.2148765e-01
-3.8119251e-01
-6.8712175e-01
-2.3519732e-01
-9.4775915e-01
-4.5371313e-02
-3.3509424e-01
-5.6753486e-01
-8.7235111e-01
-9.4750777e-02
-9.3389046e-01
-5.2692320e-02
-6.1284983e-01
-2.9040691e-01
-7.9298532e-01
-1.4624780e-01
-7.2785491e-01
-1.9440697e-01
-9.9313718e-01
0.0000000e+00
-5.4763169e-03
-9.9203265e-01
-8.5071808e-01
-1.0344394e-01
-9.1797405e-01
-5.9902512e-02
-6.5643924e-01
-2.4680375e-01
-9.8875093e-01
-1.0942929e-02
-4.4064614e-01
-1.6388042e-02
-9.8329943e-01
-4.8758101e-01
-3.9388290e-01
-3.4750536e-01
-5.3407669e-01
-2.1799944e-02
-9.7569013e-01
-7.6622719e-01
-1.5594366e-01
-6.6987053e-02
-9.0004557e-01
-6.9823790e-01
-2.0500726e-01
-1.1191944e-01
-8.2722402e-01
-9.6594000e-01
-2.7167059e-02
-5.7974857e-01
-3.0200276e-01
-3.2478001e-02
-9.5407069e-01
-8.8014525e-01
-6.2419367e-01
-2.5771797e-01
-7.3931783e-02
-7.3778892e-01
-1.6529195e-01
-9.4010860e-01
-3.7721630e-02
-1.2015976e-01
-8.0192208e-01
-4.5243099e-01
-4.0555444e-01
-3.5906789e-01
-4.9936303e-01
-6.6719157e-01
-2.1528198e-01
-8.5831821e-01
-8.0723435e-02
0.0000000e+00
-9.9752760e-01
-5.4538888e-01
-3.1295329e-01
-4.2887170e-02
-9.2408478e-01
-3.2875172e-03
-9.9641764e-01
-6.5701045e-03
-9.9312091e-01
-9.8407194e-03
-9.8764461e-01
-5.9064853e-01
-2.6819924e-01
-7.7486801e-01
-1.2814565e-01
-7.0771831e-01
-1.7424548e-01
-1.3092378e-02
-9.8000097e-01
-9.0603507e-01
-4.7964316e-02
-8.3461446e-01
-8.7349944e-02
-9.7020680e-01
-1.6318189e-02
-2.2466603e-01
-6.3431787e-01
0.0000000e+00
0.0000000e+00
0.0000000e+00
-1.9511396e-02
-9.5828390e-01
-5.2943438e-02
-8.8600010e-01
-1.3584863e-01
0.0000000e+00
0.0000000e+00
-7.4611598e-01
-9.3801156e-02
-8.0908924e-01
-6.7604178e-01
-1.8272005e-01
-9.4425857e-01
-2.2665426e-02
-5.5577445e-01
-2.7805731e-01
-5.7815917e-02
-8.6402518e-01
-9.2816198e-01
-2.5773974e-02
0.0000000e+00
-9.9972516e-01
-9.9861217e-01
-1.0913159e-03
-2.3366393e-01
-6.0012996e-01
-9.9530751e-01
-2.1824755e-03
-7.8180438e-01
-1.0007067e-01
-7.1569777e-01
-1.4320026e-01
-9.8981845e-01
-3.2711904e-03
-6.2574670e-02
-8.4016073e-01
-4.3552006e-03
-9.8215705e-01
-2.8831106e-02
-9.1003001e-01
0.0000000e+00
0.0000000e+00
-6.4294803e-01
-1.9097413e-01
0.0000000e+00
0.0000000e+00
-5.4322905e-03
-9.7234023e-01
0.0000000e+00
0.0000000e+00
-3.1831458e-02
-8.8990307e-01
-9.6038967e-01
-1.0616321e-01
-7.5283343e-01
-6.5003126e-03
0.0000000e+00
0.0000000e+00
-8.1446284e-01
-6.7215078e-02
-6.8353015e-01
-1.4995292e-01
-9.4633168e-01
-7.5572133e-03
-3.4770571e-02
-1.9889633e-01
-6.0849828e-01
-8.6782646e-01
0.0000000e+00
-9.3019730e-01
-8.6010750e-03
0.0000000e+00
0.0000000e+00
-7.2228467e-01
-1.1212829e-01
0.0000000e+00
-9.9972516e-01
-7.8699380e-01
-7.1736313e-02
1.1074123e-03
-9.9861151e-01
0.0000000e+00
-9.9530613e-01
2.2102150e-03
0.0000000e+00
-1.5663785e-01
-6.4999235e-01
-9.8981619e-01
3.3059472e-03
-3.7645485e-02
-8.4385049e-01
-9.6301790e-03
-9.1202223e-01
0.0000000e+00
0.0000000e+00
4.3921513e-03
-9.8215389e-01
-9.7233588e-01
5.4663764e-03
0.0000000e+00
0.0000000e+00
-7.6142676e-02
-7.5782353e-01
-6.8969703e-01
-1.0643120e-02
-8.9184666e-01
-1.1716648e-01
-9.6038383e-01
6.5261791e-03
-8.1803066e-01
-4.0455781e-02
0.0000000e+00
0.0000000e+00
0.0000000e+00
0.0000000e+00
-9.4632393e-01
0.0000000e+00
0.0000000e+00
7.5691263e-03
-1.1639026e-02
-8.6971533e-01
0.0000000e+00
0.0000000e+00
-7.2702688e-01
-8.0440462e-02
8.5928002e-03
-9.3018699e-01
-7.9042864e-01
-4.3204967e-02
-6.5579945e-01
-1.2228005e-01
0.0000000e+00
-9.9752760e-01
0.0000000e+00
0.0000000e+00
3.3037791e-03
-9.9641562e-01
6.5981965e-03
-9.9311674e-01
-1.2618045e-02
-8.4567767e-01
9.8760491e-03
-9.8763806e-01
9.5948074e-03
-9.1200852e-01
-9.7999161e-01
1.3130171e-02
0.0000000e+00
0.0000000e+00
-7.6111257e-01
-4.5900032e-02
-8.4347315e-02
-6.9448525e-01
1.6353454e-02
-9.7019398e-01
0.0000000e+00
0.0000000e+00
0.0000000e+00
-8.9182824e-01
1.0572807e-02
0.0000000e+00
-1.3582597e-02
0.0000000e+00
-8.1978786e-01
-9.5826674e-01
1.9538872e-02
0.0000000e+00
0.0000000e+00
0.0000000e+00
0.0000000e+00
2.2679510e-02
-9.4423580e-01
-8.6969018e-01
1.1524561e-02
-7.3015195e-01
-4.8534717e-02
0.0000000e+00
0.0000000e+00
-6.6058940e-01
-8.8364959e-02
-1.4541026e-02
-7.9210627e-01
-9.2813194e-01
2.5768613e-02
-9.9313718e-01
0.0000000e+00
5.4928982e-03
-9.9202943e-01
1.2448049e-02
-9.8874432e-01
-8.4564227e-01
1.0971701e-02
0.0000000e+00
0.0000000e+00
0.0000000e+00
0.0000000e+00
0.0000000e+00
1.6424477e-02
-9.8328894e-01
0.0000000e+00
2.8799664e-02
-9.0999019e-01
-9.7567517e-01
2.1839364e-02
0.0000000e+00
0.0000000e+00
-5.0869878e-02
-6.9746292e-01
-1.5519734e-02
-7.6270425e-01
2.7204599e-02
-9.6591955e-01
0.0000000e+00
0.0000000e+00
3.1766526e-02
-8.8984984e-01
1.3341661e-02
-8.1973606e-01
0.0000000e+00
0.0000000e+00
3.2508578e-02
-9.5404339e-01
0.0000000e+00
0.0000000e+00
-7.3168391e-01
-9.4007248e-01
3.7739880e-02
-1.6607756e-02
3.4663752e-02
-8.6775434e-01
0.0000000e+00
0.0000000e+00
1.4204344e-02
-7.9202551e-01
0.0000000e+00
0.0000000e+00
0.0000000e+00
0.0000000e+00
4.2887378e-02
0.0000000e+00
-9.2403734e-01
0.0000000e+00
0.0000000e+00
3.7487268e-02
-8.4375054e-01
0.0000000e+00
-9.8656362e-01
7.6699015e-03
-9.8546261e-01
0.0000000e+00
0.0000000e+00
1.5320999e-02
-9.8219854e-01
-9.0597266e-01
4.7940306e-02
-6.9891918e-01
-1.7368451e-02
2.2936650e-02
-9.7677851e-01
1.5034851e-02
-7.6256466e-01
0.0000000e+00
0.0000000e+00
3.0500310e-02
-9.6921426e-01
0.0000000e+00
0.0000000e+00
4.0236127e-02
-8.1788790e-01
-9.5952219e-01
3.7995577e-02
5.2888460e-02
-8.8591748e-01
0.0000000e+00
0.0000000e+00
0.0000000e+00
0.0000000e+00
4.5406260e-02
-9.4772339e-01
0.0000000e+00
0.0000000e+00
-7.3140085e-01
1.5825940e-02
0.0000000e+00
0.0000000e+00
5.7722524e-02
-8.6391479e-01
0.0000000e+00
0.0000000e+00
-9.3384349e-01
5.2716423e-02
4.2917341e-02
-7.9021597e-01
0.0000000e+00
0.0000000e+00
0.0000000e+00
0.0000000e+00
5.9910487e-02
-9.1791272e-01
6.2434651e-02
-8.4001112e-01
0.0000000e+00
-9.7782147e-01
1.6660847e-02
0.0000000e+00
0.0000000e+00
9.8299542e-03
-9.7672951e-01
-6.9862682e-01
1.9636426e-02
-9.7349375e-01
0.0000000e+00
4.5560610e-02
-7.6077849e-01
0.0000000e+00
6.6973329e-02
-8.9996547e-01
2.9398089e-02
-9.6812111e-01
0.0000000e+00
0.0000000e+00
3.9093740e-02
-9.6062315e-01
0.0000000e+00
6.7019746e-02
-8.1425595e-01
0.0000000e+00
0.0000000e+00
0.0000000e+00
0.0000000e+00
4.8702355e-02
-8.8004059e-01
7.3890418e-02
-9.5101607e-01
0.0000000e+00
0.0000000e+00
0.0000000e+00
5.8203157e-02
0.0000000e+00
-9.3932086e-01
4.8267219e-02
-7.2959584e-01
0.0000000e+00
0.0000000e+00
8.0647975e-02
0.0000000e+00
0.0000000e+00
-8.5818076e-01
7.1478166e-02
-7.8670055e-01
6.7575686e-02
-9.2556280e-01
7.6799899e-02
0.0000000e+00
-9.0977186e-01
0.0000000e+00
0.0000000e+00
0.0000000e+00
-8.3443284e-01
8.7233186e-02
-6.9690365e-01
5.0658502e-02
0.0000000e+00
0.0000000e+00
0.0000000e+00
0.0000000e+00
7.5821720e-02
-7.5739527e-01
-9.6692979e-01
0.0000000e+00
-9.6584952e-01
1.1968266e-02
2.3908414e-02
0.0000000e+00
0.0000000e+00
-9.6264929e-01
8.5856222e-02
-8.9198214e-01
-9.5733589e-01
0.0000000e+00
0.0000000e+00
3.5794467e-02
-9.4992077e-01
4.7600593e-02
0.0000000e+00
0.0000000e+00
9.3634143e-02
-8.0884719e-01
9.4725676e-02
-8.7223220e-01
-9.4042009e-01
5.9301171e-02
0.0000000e+00
0.0000000e+00
8.0086917e-02
-7.2638530e-01
0.0000000e+00
0.0000000e+00
0.0000000e+00
0.0000000e+00
7.0870861e-02
-9.2885435e-01
1.0338994e-01
-8.5056466e-01
-7.8147870e-01
9.9838600e-02
0.0000000e+00
-9.1524869e-01
8.2284696e-02
0.0000000e+00
0.0000000e+00
0.0000000e+00
0.0000000e+00
0.0000000e+00
0.0000000e+00
8.3924204e-02
-6.9388533e-01
9.3518145e-02
-8.9963269e-01
0.0000000e+00
0.0000000e+00
0.0000000e+00
0.0000000e+00
1.1183131e-01
-8.2702625e-01
-7.5238919e-01
1.0582728e-01
0.0000000e+00
0.0000000e+00
-9.5391256e-01
0.0000000e+00
0.0000000e+00
0.0000000e+00
1.4080110e-02
-9.5284647e-01
1.0454721e-01
-8.8204020e-01
2.8127514e-02
-9.4968891e-01
4.2111635e-02
-9.4444656e-01
1.2003241e-01
-8.0166775e-01
-9.3713081e-01
5.6002051e-02
0.0000000e+00
0.0000000e+00
0.0000000e+00
0.0000000e+00
1.1534848e-01
-8.6250937e-01
-7.2165966e-01
0.0000000e+00
-9.2775750e-01
6.9768578e-02
0.0000000e+00
0.0000000e+00
0.0000000e+00
1.1154480e-01
0.0000000e+00
0.0000000e+00
-9.1634691e-01
8.3381370e-02
0.0000000e+00
0.0000000e+00
0.0000000e+00
1.2797511e-01
0.0000000e+00
-7.7454454e-01
1.2589918e-01
-8.4108257e-01
-9.0292382e-01
9.6810952e-02
0.0000000e+00
0.0000000e+00
0.0000000e+00
0.0000000e+00
-6.8944013e-01
1.1677852e-01
1.1002836e-01
-8.8751751e-01
0.0000000e+00
-8.1780624e-01
1.3617714e-01
0.0000000e+00